                         Program Version 5.0.1 -  RELEASE  -
|  1> ! MP2 UHF 6-31G(d) OPTTS NumFreq NoFrozenCore VERYTIGHTSCF VERYTIGHTOPT
|  2> * XYZfile 0 2 input.xyz
|  3>
|  4>                          ****END OF INPUT****
 Total Charge           Charge          ....    0
 Multiplicity           Mult            ....    2
 Number of Electrons    NEL             ....   41
MP2 TOTAL ENERGY:     -351.837500916 Eh
FINAL SINGLE POINT ENERGY      -351.837500915611
MP2 TOTAL ENERGY:     -351.847038907 Eh
FINAL SINGLE POINT ENERGY      -351.847038907223
MP2 TOTAL ENERGY:     -351.849520046 Eh
FINAL SINGLE POINT ENERGY      -351.849520045905
MP2 TOTAL ENERGY:     -351.855640840 Eh
FINAL SINGLE POINT ENERGY      -351.855640839809
MP2 TOTAL ENERGY:     -351.864028001 Eh
FINAL SINGLE POINT ENERGY      -351.864028000885
MP2 TOTAL ENERGY:     -351.870125234 Eh
FINAL SINGLE POINT ENERGY      -351.870125234488
FINAL SINGLE POINT ENERGY      -351.872272040798
FINAL SINGLE POINT ENERGY      -351.872788943053
FINAL SINGLE POINT ENERGY      -351.872927822187
FINAL SINGLE POINT ENERGY      -351.873007418233
FINAL SINGLE POINT ENERGY      -351.873396100796
FINAL SINGLE POINT ENERGY      -351.873396185709
FINAL SINGLE POINT ENERGY      -351.873396245145
FINAL SINGLE POINT ENERGY      -351.873396291434
MP2 TOTAL ENERGY:     -351.873396324 Eh
FINAL SINGLE POINT ENERGY      -351.873396323907
MP2 TOTAL ENERGY:     -351.873396348 Eh
FINAL SINGLE POINT ENERGY      -351.873396347958
MP2 TOTAL ENERGY:     -351.873396365 Eh
FINAL SINGLE POINT ENERGY      -351.873396365193
MP2 TOTAL ENERGY:     -351.873396370 Eh
FINAL SINGLE POINT ENERGY      -351.873396370267
MP2 TOTAL ENERGY:     -351.873396378 Eh
FINAL SINGLE POINT ENERGY      -351.873396378143
                    ***********************HURRAY********************

CARTESIAN COORDINATES (ANGSTROEM)
---------------------------------
  C      0.922823   -0.003596    0.075891
  H      0.514050    0.387179    1.001750
  C      0.235818    1.169429   -1.240707
  F      0.876643    0.621863   -2.335732
  O     -0.959310    1.046187   -1.083990
  H      0.544474   -0.948789   -0.297848
  F      2.263986    0.093693    0.007677
  H      0.836013    2.029931   -0.902221

 Multiplicity           Mult            ....    2
 Number of Electrons    NEL             ....   41
 Basis Dimension        Dim             ....   76

ORBITAL ENERGIES
----------------
                 SPIN UP ORBITALS
  NO   OCC          E(Eh)            E(eV)
   0   1.0000     -26.324248      -716.3192
   1   1.0000     -26.297419      -715.5892
   2   1.0000     -20.630835      -561.3936
   3   1.0000     -11.399096      -310.1852
   4   1.0000     -11.365766      -309.2782
   5   1.0000      -1.643492       -44.7217
   6   1.0000      -1.613996       -43.9191
   7   1.0000      -1.467877       -39.9430
   8   1.0000      -1.005908       -27.3721
   9   1.0000      -0.884266       -24.0621
  10   1.0000      -0.769725       -20.9453
  11   1.0000      -0.750051       -20.4099
  12   1.0000      -0.742807       -20.2128
  13   1.0000      -0.731070       -19.8934
  14   1.0000      -0.717233       -19.5169
  15   1.0000      -0.666083       -18.1250
  16   1.0000      -0.631397       -17.1812
  17   1.0000      -0.607638       -16.5347
  18   1.0000      -0.574850       -15.6425
  19   1.0000      -0.525164       -14.2904
  20   1.0000      -0.421725       -11.4757
  21   0.0000       0.225574         6.1382
  22   0.0000       0.236465         6.4345
  23   0.0000       0.279641         7.6094
  24   0.0000       0.298886         8.1331
  25   0.0000       0.322781         8.7833

                 SPIN DOWN ORBITALS
  NO   OCC          E(Eh)            E(eV)
   0   1.0000     -26.320940      -716.2292
   1   1.0000     -26.297615      -715.5945
   2   1.0000     -20.601922      -560.6068
   3   1.0000     -11.409433      -310.4665
   4   1.0000     -11.346936      -308.7658
   5   1.0000      -1.633449       -44.4484
   6   1.0000      -1.613530       -43.9064
   7   1.0000      -1.399453       -38.0811
   8   1.0000      -0.953519       -25.9466
   9   1.0000      -0.872837       -23.7511
  10   1.0000      -0.760636       -20.6980
  11   1.0000      -0.736303       -20.0358
  12   1.0000      -0.722017       -19.6471
  13   1.0000      -0.706419       -19.2226
  14   1.0000      -0.694791       -18.9062
  15   1.0000      -0.652406       -17.7529
  16   1.0000      -0.602642       -16.3987
  17   1.0000      -0.568202       -15.4616
  18   1.0000      -0.497439       -13.5360
  19   1.0000      -0.478760       -13.0277
  20   0.0000       0.053310         1.4506
  21   0.0000       0.243294         6.6204
  22   0.0000       0.252892         6.8815
  23   0.0000       0.283352         7.7104
  24   0.0000       0.312012         8.4903

MULLIKEN ATOMIC CHARGES AND SPIN DENSITIES
------------------------------------------
   0 C :    0.053666    0.553592
   1 H :    0.206745   -0.012416
   2 C :    0.430001    0.043385
   3 F :   -0.350340    0.007531
   4 O :   -0.440767    0.311556
   5 H :    0.221702   -0.009849
   6 F :   -0.303764    0.053198
   7 H :    0.182756    0.053004
Sum of atomic charges       :   -0.0000000

LOEWDIN ATOMIC CHARGES AND SPIN DENSITIES
-----------------------------------------
   0 C :   -0.009109    0.501390
   1 H :    0.150177   -0.006640
   2 C :    0.101495    0.071750
   3 F :   -0.169749    0.012929
   4 O :   -0.244788    0.308948
   5 H :    0.159541   -0.004164
   6 F :   -0.118624    0.070103
   7 H :    0.131057    0.045684

  Mayer bond orders larger than 0.100000
B(  0-C ,  1-H ) :   0.8802 B(  0-C ,  2-C ) :   0.4358 B(  0-C ,  4-O ) :   0.1127
B(  0-C ,  5-H ) :   0.8792 B(  0-C ,  6-F ) :   0.9056 B(  2-C ,  3-F ) :   0.8188
B(  2-C ,  4-O ) :   1.7576 B(  2-C ,  7-H ) :   0.8428

MP2 TOTAL ENERGY:     -351.873396391 Eh
FINAL SINGLE POINT ENERGY      -351.873396390723

DIPOLE MOMENT
-------------
                                X             Y             Z
Electronic contribution:      2.36878      -0.26734      -1.99116
Nuclear contribution   :     -1.87119       0.17813       2.86759
                        -----------------------------------------
Total Dipole Moment    :      0.49759      -0.08922       0.87643
                        -----------------------------------------
Magnitude (a.u.)       :      1.01177
Magnitude (Debye)      :      2.57171

VIBRATIONAL FREQUENCIES
-----------------------

Scaling factor for frequencies =  1.000000000 (already applied!)

   0:         0.00 cm**-1
   1:         0.00 cm**-1
   2:         0.00 cm**-1
   3:         0.00 cm**-1
   4:         0.00 cm**-1
   5:         0.00 cm**-1
   6:      -709.79 cm**-1 ***imaginary mode***
   7:       110.76 cm**-1
   8:       199.76 cm**-1
   9:       375.03 cm**-1
  10:       405.65 cm**-1
  11:       631.78 cm**-1
  12:       783.20 cm**-1
  13:       965.52 cm**-1
  14:      1061.32 cm**-1
  15:      1178.37 cm**-1
  16:      1230.22 cm**-1
  17:      1242.68 cm**-1
  18:      1390.74 cm**-1
  19:      1547.21 cm**-1
  20:      1700.69 cm**-1
  21:      3063.46 cm**-1
  22:      3206.59 cm**-1
  23:      3348.53 cm**-1

IR SPECTRUM
-----------

 Mode   freq       eps      Int      T**2         TX        TY        TZ
       cm**-1   L/(mol*cm) km/mol    a.u.
----------------------------------------------------------------------------
  7:    110.76   0.002072   10.47  0.005837  ( 0.012055 -0.061286 -0.043999)
  8:    199.76   0.001622    8.20  0.002534  ( 0.007281 -0.047188  0.015954)
  9:    375.03   0.001359    6.87  0.001131  (-0.009160  0.026059 -0.019175)
 10:    405.65   0.006270   31.69  0.004824  ( 0.003513 -0.037559  0.058316)
 11:    631.78   0.001902    9.61  0.000940  ( 0.012630  0.027921  0.000628)
 12:    783.20   0.004710   23.80  0.001877  ( 0.027847 -0.003905 -0.032952)
 13:    965.52   0.016204   81.89  0.005237  (-0.065883  0.021742  0.020588)
 14:   1061.32   0.035446  179.13  0.010422  ( 0.014837  0.024001  0.098113)
 15:   1178.37   0.035686  180.34  0.009451  (-0.090241  0.032035 -0.016762)
 16:   1230.22   0.003734   18.87  0.000947  ( 0.013359  0.015614 -0.022912)
 17:   1242.68   0.001755    8.87  0.000441  ( 0.001043 -0.018222 -0.010375)
 18:   1390.74   0.002181   11.02  0.000489  ( 0.006878 -0.005558  0.020280)
 19:   1547.21   0.001403    7.09  0.000283  (-0.013679  0.004488 -0.008705)
 20:   1700.69   0.027313  138.03  0.005012  ( 0.063487  0.002711 -0.031205)
 21:   3063.46   0.004926   24.90  0.000502  (-0.001582 -0.020931 -0.007824)
 22:   3206.59   0.001008    5.09  0.000098  ( 0.009614 -0.002336 -0.000458)
 23:   3348.53   0.000601    3.04  0.000056  (-0.000128 -0.004123 -0.006244)

--------------------------
THERMOCHEMISTRY AT 298.15K
--------------------------

Temperature         ... 298.15 K
Pressure            ... 1.00 atm
Total Mass          ... 81.04 AMU

Throughout the following assumptions are being made:
  (1) The electronic state is orbitally nondegenerate
      but the spin degeneracy is treated
  (2) There are no thermally accessible electronically excited states
  (3) Hindered rotations indicated by low frequency modes are not
      treated as such but are treated as vibrations and this may
      cause some error
  (4) All equations used are the standard statistical mechanics
      equations for an ideal gas
  (5) All vibrations are strictly harmonic

freq.     110.76  E(vib)   ...       0.45
freq.     199.76  E(vib)   ...       0.35
freq.     375.03  E(vib)   ...       0.21
freq.     405.65  E(vib)   ...       0.19
freq.     631.78  E(vib)   ...       0.09
freq.     783.20  E(vib)   ...       0.05
freq.     965.52  E(vib)   ...       0.03
freq.    1061.32  E(vib)   ...       0.02
freq.    1178.37  E(vib)   ...       0.01
freq.    1230.22  E(vib)   ...       0.01
freq.    1242.68  E(vib)   ...       0.01
freq.    1390.74  E(vib)   ...       0.00
freq.    1547.21  E(vib)   ...       0.00
freq.    1700.69  E(vib)   ...       0.00
freq.    3063.46  E(vib)   ...       0.00
freq.    3206.59  E(vib)   ...       0.00
freq.    3348.53  E(vib)   ...       0.00

------------
INNER ENERGY
------------

The inner energy is: U= E(el) + E(ZPE) + E(vib) + E(rot) + E(trans)
    E(el)   - is the total energy from the electronic structure calculation
              = E(kin-el) + E(nuc-el) + E(el-el) + E(nuc-nuc)
    E(ZPE)  - the the zero temperature vibrational energy from the frequency calculation
    E(vib)  - the the finite temperature correction to E(ZPE) due to population
              of excited vibrational states
    E(rot)  - is the rotational thermal energy
    E(trans)- is the translational thermal energy

Summary of contributions to the inner energy U:
Electronic energy                ...   -351.87339639 Eh
Zero point energy                ...      0.05112554 Eh      32.08 kcal/mol
Thermal vibrational correction   ...      0.00227270 Eh       1.43 kcal/mol
Thermal rotational correction    ...      0.00141627 Eh       0.89 kcal/mol
Thermal translational correction ...      0.00141627 Eh       0.89 kcal/mol
-----------------------------------------------------------------------
Total thermal energy                   -351.81716562 Eh

Summary of corrections to the electronic energy:
(perhaps to be used in another calculation)
Total thermal correction                  0.00510524 Eh       3.20 kcal/mol
Non-thermal (ZPE) correction              0.05112554 Eh      32.08 kcal/mol
-----------------------------------------------------------------------
Total correction                          0.05623078 Eh      35.29 kcal/mol

--------
ENTHALPY
--------

The enthalpy is H = U + kB*T
                kB is Boltzmann's constant
Total free energy                 ...   -351.81716562 Eh
Thermal Enthalpy correction       ...      0.00094421 Eh       0.59 kcal/mol
-----------------------------------------------------------------------
Total Enthalpy                    ...   -351.81622141 Eh

Note: Only C1 symmetry has been detected, increase convergence thresholds
      if your molecule has a higher symmetry. Symmetry factor of 1.0 is
      used for the rotational entropy correction.

Note: Rotational entropy computed according to Herzberg
Infrared and Raman Spectra, Chapter V,1, Van Nostrand Reinhold, 1945
Point Group:  C1, Symmetry Number:   1
Rotational constants in cm-1:     0.292133     0.123009     0.093947

Vibrational entropy computed according to the QRRHO of S. Grimme
Chem.Eur.J. 2012 18 9955

-------
ENTROPY
-------

The entropy contributions are T*S = T*(S(el)+S(vib)+S(rot)+S(trans))
     S(el)   - electronic entropy
     S(vib)  - vibrational entropy
     S(rot)  - rotational entropy
     S(trans)- translational entropy
The entropies will be listed as multiplied by the temperature to get
units of energy

Electronic entropy                ...      0.00065446 Eh      0.41 kcal/mol
Vibrational entropy               ...      0.00387165 Eh      2.43 kcal/mol
Rotational entropy                ...      0.01219751 Eh      7.65 kcal/mol
Translational entropy             ...      0.01857352 Eh     11.66 kcal/mol
-----------------------------------------------------------------------
Final entropy term                ...      0.03529714 Eh     22.15 kcal/mol

In case the symmetry of your molecule has not been determined correctly
or in case you have a reason to use a different symmetry number we print
out the resulting rotational entropy values for sn=1,12 :
 --------------------------------------------------------
|  sn= 1 | S(rot)=       0.01219751 Eh      7.65 kcal/mol|
|  sn= 2 | S(rot)=       0.01154305 Eh      7.24 kcal/mol|
|  sn= 3 | S(rot)=       0.01116022 Eh      7.00 kcal/mol|
|  sn= 4 | S(rot)=       0.01088860 Eh      6.83 kcal/mol|
|  sn= 5 | S(rot)=       0.01067791 Eh      6.70 kcal/mol|
|  sn= 6 | S(rot)=       0.01050577 Eh      6.59 kcal/mol|
|  sn= 7 | S(rot)=       0.01036022 Eh      6.50 kcal/mol|
|  sn= 8 | S(rot)=       0.01023414 Eh      6.42 kcal/mol|
|  sn= 9 | S(rot)=       0.01012293 Eh      6.35 kcal/mol|
|  sn=10 | S(rot)=       0.01002345 Eh      6.29 kcal/mol|
|  sn=11 | S(rot)=       0.00993346 Eh      6.23 kcal/mol|
|  sn=12 | S(rot)=       0.00985131 Eh      6.18 kcal/mol|
 --------------------------------------------------------

-------------------
GIBBS FREE ENERGY
-------------------

The Gibbs free energy is G = H - T*S

Total enthalpy                    ...   -351.81622141 Eh
Total entropy correction          ...     -0.03529714 Eh    -22.15 kcal/mol
-----------------------------------------------------------------------
Final Gibbs free energy         ...   -351.85151855 Eh

For completeness - the Gibbs free energy minus the electronic energy
G-E(el)                           ...      0.02187785 Eh     13.73 kcal/mol

                             ****ORCA TERMINATED NORMALLY****
TOTAL RUN TIME: 0 days 0 hours 54 minutes 36 seconds 686 msec
