                         Program Version 5.0.1 -  RELEASE  -
|  1> ! MP2 UHF 6-31G(d) OPTTS NumFreq NoFrozenCore VERYTIGHTSCF VERYTIGHTOPT
|  2>
|  3> * XYZfile 0 2 input.xyz
|  4>
|  5>                          ****END OF INPUT****
 Total Charge           Charge          ....    0
 Multiplicity           Mult            ....    2
 Number of Electrons    NEL             ....   33
MP2 TOTAL ENERGY:     -252.861767783 Eh
FINAL SINGLE POINT ENERGY      -252.861767783231
MP2 TOTAL ENERGY:     -252.861677380 Eh
FINAL SINGLE POINT ENERGY      -252.861677380037
MP2 TOTAL ENERGY:     -252.861449956 Eh
FINAL SINGLE POINT ENERGY      -252.861449956242
MP2 TOTAL ENERGY:     -252.861149544 Eh
FINAL SINGLE POINT ENERGY      -252.861149543602
MP2 TOTAL ENERGY:     -252.861112420 Eh
FINAL SINGLE POINT ENERGY      -252.861112420407
MP2 TOTAL ENERGY:     -252.861346139 Eh
FINAL SINGLE POINT ENERGY      -252.861346138541
FINAL SINGLE POINT ENERGY      -252.862311620036
FINAL SINGLE POINT ENERGY      -252.861550300075
FINAL SINGLE POINT ENERGY      -252.861501149940
FINAL SINGLE POINT ENERGY      -252.861618389021
FINAL SINGLE POINT ENERGY      -252.861767652886
FINAL SINGLE POINT ENERGY      -252.861767713092
FINAL SINGLE POINT ENERGY      -252.861767758810
FINAL SINGLE POINT ENERGY      -252.861767756615
MP2 TOTAL ENERGY:     -252.861767789 Eh
FINAL SINGLE POINT ENERGY      -252.861767789422
MP2 TOTAL ENERGY:     -252.861767814 Eh
FINAL SINGLE POINT ENERGY      -252.861767814454
MP2 TOTAL ENERGY:     -252.861767832 Eh
FINAL SINGLE POINT ENERGY      -252.861767831579
MP2 TOTAL ENERGY:     -252.861767851 Eh
FINAL SINGLE POINT ENERGY      -252.861767850623
MP2 TOTAL ENERGY:     -252.861767846 Eh
FINAL SINGLE POINT ENERGY      -252.861767846157
                    ***********************HURRAY********************

CARTESIAN COORDINATES (ANGSTROEM)
---------------------------------
  C      1.111934   -0.001951   -0.124608
  C      0.364794    0.566830    1.572781
  F      1.018397    1.782454    1.664504
  O     -0.821905    0.507456    1.362368
  H      0.694160    0.759773   -0.770717
  H      0.717688   -1.001650   -0.258421
  H      2.173976    0.080171    0.079555
  H      0.943320   -0.167155    2.154870

 Multiplicity           Mult            ....    2
 Number of Electrons    NEL             ....   33
 Basis Dimension        Dim             ....   64

ORBITAL ENERGIES
----------------
                 SPIN UP ORBITALS
  NO   OCC          E(Eh)            E(eV)
   0   1.0000     -26.291284      -715.4222
   1   1.0000     -20.617005      -561.0172
   2   1.0000     -11.393784      -310.0406
   3   1.0000     -11.269620      -306.6619
   4   1.0000      -1.607993       -43.7557
   5   1.0000      -1.455730       -39.6124
   6   1.0000      -1.000237       -27.2178
   7   1.0000      -0.869163       -23.6511
   8   1.0000      -0.750540       -20.4232
   9   1.0000      -0.714289       -19.4368
  10   1.0000      -0.698614       -19.0103
  11   1.0000      -0.633195       -17.2301
  12   1.0000      -0.610798       -16.6207
  13   1.0000      -0.596613       -16.2347
  14   1.0000      -0.586898       -15.9703
  15   1.0000      -0.513174       -13.9642
  16   1.0000      -0.410253       -11.1635
  17   0.0000       0.216813         5.8998
  18   0.0000       0.247248         6.7280
  19   0.0000       0.288418         7.8483
  20   0.0000       0.301247         8.1973
  21   0.0000       0.306117         8.3299

                 SPIN DOWN ORBITALS
  NO   OCC          E(Eh)            E(eV)
   0   1.0000     -26.291599      -715.4308
   1   1.0000     -20.589030      -560.2560
   2   1.0000     -11.404528      -310.3330
   3   1.0000     -11.250731      -306.1479
   4   1.0000      -1.608364       -43.7658
   5   1.0000      -1.390898       -37.8483
   6   1.0000      -0.939282       -25.5592
   7   1.0000      -0.857170       -23.3248
   8   1.0000      -0.743147       -20.2221
   9   1.0000      -0.691223       -18.8091
  10   1.0000      -0.681438       -18.5429
  11   1.0000      -0.601800       -16.3758
  12   1.0000      -0.595497       -16.2043
  13   1.0000      -0.582226       -15.8432
  14   1.0000      -0.485087       -13.1999
  15   1.0000      -0.475255       -12.9323
  16   0.0000       0.066978         1.8226
  17   0.0000       0.237799         6.4708
  18   0.0000       0.274041         7.4570
  19   0.0000       0.292116         7.9489
  20   0.0000       0.312583         8.5058

MULLIKEN ATOMIC CHARGES AND SPIN DENSITIES
------------------------------------------
   0 C :   -0.510718    0.707429
   1 C :    0.460789    0.032883
   2 F :   -0.353484    0.004493
   3 O :   -0.426454    0.283761
   4 H :    0.232169   -0.028018
   5 H :    0.213949   -0.029890
   6 H :    0.209567   -0.015423
   7 H :    0.174182    0.044765
Sum of atomic charges       :    0.0000000

LOEWDIN ATOMIC CHARGES AND SPIN DENSITIES
-----------------------------------------
   0 C :   -0.329201    0.638047
   1 C :    0.126476    0.062726
   2 F :   -0.175499    0.010081
   3 O :   -0.234739    0.286317
   4 H :    0.169531   -0.014708
   5 H :    0.159262   -0.016432
   6 H :    0.157954   -0.006763
   7 H :    0.126215    0.040732

  Mayer bond orders larger than 0.100000
B(  0-C ,  1-C ) :   0.3971 B(  0-C ,  3-O ) :   0.1167 B(  0-C ,  4-H ) :   0.8990
B(  0-C ,  5-H ) :   0.8994 B(  0-C ,  6-H ) :   0.9004 B(  1-C ,  2-F ) :   0.8195
B(  1-C ,  3-O ) :   1.8028 B(  1-C ,  7-H ) :   0.8497

MP2 TOTAL ENERGY:     -252.861767853 Eh
FINAL SINGLE POINT ENERGY      -252.861767852970

DIPOLE MOMENT
-------------
                                X             Y             Z
Electronic contribution:     -1.00980       3.42653       3.24460
Nuclear contribution   :      2.00923      -4.13493      -3.63673
                        -----------------------------------------
Total Dipole Moment    :      0.99944      -0.70839      -0.39214
                        -----------------------------------------
Magnitude (a.u.)       :      1.28626
Magnitude (Debye)      :      3.26942

VIBRATIONAL FREQUENCIES
-----------------------

Scaling factor for frequencies =  1.000000000 (already applied!)

   0:         0.00 cm**-1
   1:         0.00 cm**-1
   2:         0.00 cm**-1
   3:         0.00 cm**-1
   4:         0.00 cm**-1
   5:         0.00 cm**-1
   6:      -789.28 cm**-1 ***imaginary mode***
   7:       189.04 cm**-1
   8:       273.59 cm**-1
   9:       422.24 cm**-1
  10:       628.88 cm**-1
  11:       721.90 cm**-1
  12:       770.97 cm**-1
  13:       984.16 cm**-1
  14:      1064.04 cm**-1
  15:      1183.82 cm**-1
  16:      1392.95 cm**-1
  17:      1488.75 cm**-1
  18:      1499.78 cm**-1
  19:      1734.82 cm**-1
  20:      3076.90 cm**-1
  21:      3179.32 cm**-1
  22:      3348.61 cm**-1
  23:      3363.67 cm**-1

IR SPECTRUM
-----------

 Mode   freq       eps      Int      T**2         TX        TY        TZ
       cm**-1   L/(mol*cm) km/mol    a.u.
----------------------------------------------------------------------------
  7:    189.04   0.000062    0.31  0.000102  ( 0.004889  0.008673  0.001636)
  8:    273.59   0.000244    1.23  0.000279  ( 0.012563 -0.001695 -0.010863)
  9:    422.24   0.009078   45.88  0.006709  ( 0.026358 -0.031062 -0.071063)
 10:    628.88   0.001821    9.20  0.000904  ( 0.017342 -0.011304  0.021799)
 11:    721.90   0.000922    4.66  0.000399  (-0.017523 -0.005763  0.007635)
 12:    770.97   0.002363   11.94  0.000957  (-0.007460 -0.016074 -0.025348)
 13:    984.16   0.014556   73.56  0.004615  ( 0.030549  0.055540  0.024445)
 14:   1064.04   0.028182  142.42  0.008265  ( 0.017172  0.089114  0.005404)
 15:   1183.82   0.001223    6.18  0.000322  (-0.008530 -0.005002  0.014989)
 16:   1392.95   0.003089   15.61  0.000692  (-0.010605  0.016225  0.017782)
 17:   1488.75   0.000819    4.14  0.000172  ( 0.003053 -0.011875  0.004621)
 18:   1499.78   0.001006    5.08  0.000209  ( 0.010397  0.006479  0.007697)
 19:   1734.82   0.030727  155.28  0.005527  ( 0.068350  0.023732  0.017097)
 20:   3076.90   0.006102   30.84  0.000619  (-0.004436  0.018376 -0.016171)
 21:   3179.32   0.000313    1.58  0.000031  (-0.002697  0.000954 -0.004745)
 22:   3348.61   0.000044    0.22  0.000004  ( 0.001779  0.000941  0.000301)
 23:   3363.67   0.000020    0.10  0.000002  (-0.000267 -0.000540 -0.001233)

--------------------------
THERMOCHEMISTRY AT 298.15K
--------------------------

Temperature         ... 298.15 K
Pressure            ... 1.00 atm
Total Mass          ... 63.05 AMU

Throughout the following assumptions are being made:
  (1) The electronic state is orbitally nondegenerate
      but the spin degeneracy is treated
  (2) There are no thermally accessible electronically excited states
  (3) Hindered rotations indicated by low frequency modes are not
      treated as such but are treated as vibrations and this may
      cause some error
  (4) All equations used are the standard statistical mechanics
      equations for an ideal gas
  (5) All vibrations are strictly harmonic

freq.     189.04  E(vib)   ...       0.36
freq.     273.59  E(vib)   ...       0.29
freq.     422.24  E(vib)   ...       0.18
freq.     628.88  E(vib)   ...       0.09
freq.     721.90  E(vib)   ...       0.07
freq.     770.97  E(vib)   ...       0.05
freq.     984.16  E(vib)   ...       0.02
freq.    1064.04  E(vib)   ...       0.02
freq.    1183.82  E(vib)   ...       0.01
freq.    1392.95  E(vib)   ...       0.00
freq.    1488.75  E(vib)   ...       0.00
freq.    1499.78  E(vib)   ...       0.00
freq.    1734.82  E(vib)   ...       0.00
freq.    3076.90  E(vib)   ...       0.00
freq.    3179.32  E(vib)   ...       0.00
freq.    3348.61  E(vib)   ...       0.00
freq.    3363.67  E(vib)   ...       0.00

------------
INNER ENERGY
------------

The inner energy is: U= E(el) + E(ZPE) + E(vib) + E(rot) + E(trans)
    E(el)   - is the total energy from the electronic structure calculation
              = E(kin-el) + E(nuc-el) + E(el-el) + E(nuc-nuc)
    E(ZPE)  - the the zero temperature vibrational energy from the frequency calculation
    E(vib)  - the the finite temperature correction to E(ZPE) due to population
              of excited vibrational states
    E(rot)  - is the rotational thermal energy
    E(trans)- is the translational thermal energy

Summary of contributions to the inner energy U:
Electronic energy                ...   -252.86176788 Eh
Zero point energy                ...      0.05769106 Eh      36.20 kcal/mol
Thermal vibrational correction   ...      0.00176220 Eh       1.11 kcal/mol
Thermal rotational correction    ...      0.00141627 Eh       0.89 kcal/mol
Thermal translational correction ...      0.00141627 Eh       0.89 kcal/mol
-----------------------------------------------------------------------
Total thermal energy                   -252.79948207 Eh

Summary of corrections to the electronic energy:
(perhaps to be used in another calculation)
Total thermal correction                  0.00459474 Eh       2.88 kcal/mol
Non-thermal (ZPE) correction              0.05769106 Eh      36.20 kcal/mol
-----------------------------------------------------------------------
Total correction                          0.06228581 Eh      39.08 kcal/mol

--------
ENTHALPY
--------

The enthalpy is H = U + kB*T
                kB is Boltzmann's constant
Total free energy                 ...   -252.79948207 Eh
Thermal Enthalpy correction       ...      0.00094421 Eh       0.59 kcal/mol
-----------------------------------------------------------------------
Total Enthalpy                    ...   -252.79853786 Eh

Note: Only C1 symmetry has been detected, increase convergence thresholds
      if your molecule has a higher symmetry. Symmetry factor of 1.0 is
      used for the rotational entropy correction.

Note: Rotational entropy computed according to Herzberg
Infrared and Raman Spectra, Chapter V,1, Van Nostrand Reinhold, 1945
Point Group:  C1, Symmetry Number:   1
Rotational constants in cm-1:     0.324383     0.267214     0.164391

Vibrational entropy computed according to the QRRHO of S. Grimme
Chem.Eur.J. 2012 18 9955

-------
ENTROPY
-------

The entropy contributions are T*S = T*(S(el)+S(vib)+S(rot)+S(trans))
     S(el)   - electronic entropy
     S(vib)  - vibrational entropy
     S(rot)  - rotational entropy
     S(trans)- translational entropy
The entropies will be listed as multiplied by the temperature to get
units of energy

Electronic entropy                ...      0.00065446 Eh      0.41 kcal/mol
Vibrational entropy               ...      0.00279412 Eh      1.75 kcal/mol
Rotational entropy                ...      0.01151769 Eh      7.23 kcal/mol
Translational entropy             ...      0.01821802 Eh     11.43 kcal/mol
-----------------------------------------------------------------------
Final entropy term                ...      0.03318428 Eh     20.82 kcal/mol

In case the symmetry of your molecule has not been determined correctly
or in case you have a reason to use a different symmetry number we print
out the resulting rotational entropy values for sn=1,12 :
 --------------------------------------------------------
|  sn= 1 | S(rot)=       0.01151769 Eh      7.23 kcal/mol|
|  sn= 2 | S(rot)=       0.01086323 Eh      6.82 kcal/mol|
|  sn= 3 | S(rot)=       0.01048040 Eh      6.58 kcal/mol|
|  sn= 4 | S(rot)=       0.01020877 Eh      6.41 kcal/mol|
|  sn= 5 | S(rot)=       0.00999808 Eh      6.27 kcal/mol|
|  sn= 6 | S(rot)=       0.00982594 Eh      6.17 kcal/mol|
|  sn= 7 | S(rot)=       0.00968039 Eh      6.07 kcal/mol|
|  sn= 8 | S(rot)=       0.00955432 Eh      6.00 kcal/mol|
|  sn= 9 | S(rot)=       0.00944311 Eh      5.93 kcal/mol|
|  sn=10 | S(rot)=       0.00934363 Eh      5.86 kcal/mol|
|  sn=11 | S(rot)=       0.00925364 Eh      5.81 kcal/mol|
|  sn=12 | S(rot)=       0.00917148 Eh      5.76 kcal/mol|
 --------------------------------------------------------

-------------------
GIBBS FREE ENERGY
-------------------

The Gibbs free energy is G = H - T*S

Total enthalpy                    ...   -252.79853786 Eh
Total entropy correction          ...     -0.03318428 Eh    -20.82 kcal/mol
-----------------------------------------------------------------------
Final Gibbs free energy         ...   -252.83172214 Eh

For completeness - the Gibbs free energy minus the electronic energy
G-E(el)                           ...      0.03004574 Eh     18.85 kcal/mol

                             ****ORCA TERMINATED NORMALLY****
TOTAL RUN TIME: 0 days 0 hours 41 minutes 23 seconds 254 msec
