                         Program Version 5.0.1 -  RELEASE  -
|  1> ! MP2 UHF 6-31G(d) opt NumFreq NoFrozenCore VERYTIGHTSCF VERYTIGHTOPT
|  2> * XYZfile 0 2 input.xyz
|  3>
|  4>                          ****END OF INPUT****
 Total Charge           Charge          ....    0
 Multiplicity           Mult            ....    2
 Number of Electrons    NEL             ....   33
MP2 TOTAL ENERGY:     -252.881583772 Eh
FINAL SINGLE POINT ENERGY      -252.881583771555
MP2 TOTAL ENERGY:     -252.887244818 Eh
FINAL SINGLE POINT ENERGY      -252.887244818175
MP2 TOTAL ENERGY:     -252.891042857 Eh
FINAL SINGLE POINT ENERGY      -252.891042857296
MP2 TOTAL ENERGY:     -252.891262686 Eh
FINAL SINGLE POINT ENERGY      -252.891262686354
MP2 TOTAL ENERGY:     -252.891318089 Eh
FINAL SINGLE POINT ENERGY      -252.891318088521
MP2 TOTAL ENERGY:     -252.891323807 Eh
FINAL SINGLE POINT ENERGY      -252.891323806890
MP2 TOTAL ENERGY:     -252.891325164 Eh
FINAL SINGLE POINT ENERGY      -252.891325163811
MP2 TOTAL ENERGY:     -252.891325349 Eh
FINAL SINGLE POINT ENERGY      -252.891325348696
MP2 TOTAL ENERGY:     -252.891325387 Eh
FINAL SINGLE POINT ENERGY      -252.891325386958
MP2 TOTAL ENERGY:     -252.891325400 Eh
FINAL SINGLE POINT ENERGY      -252.891325399860
                    ***********************HURRAY********************

CARTESIAN COORDINATES (ANGSTROEM)
---------------------------------
  C      1.064612    0.052038    0.017933
  C      0.545674    0.502819    1.375595
  F      1.069511    1.769336    1.643995
  O     -0.801408    0.497179    1.372230
  H      0.688400    0.731852   -0.747866
  H      0.731535   -0.963295   -0.197600
  H      2.154133    0.093788    0.024996
  H      0.877003   -0.157256    2.191366

 Multiplicity           Mult            ....    2
 Number of Electrons    NEL             ....   33
 Basis Dimension        Dim             ....   64

ORBITAL ENERGIES
----------------
                 SPIN UP ORBITALS
  NO   OCC          E(Eh)            E(eV)
   0   1.0000     -26.277240      -715.0401
   1   1.0000     -20.652506      -561.9833
   2   1.0000     -11.376298      -309.5648
   3   1.0000     -11.243520      -305.9517
   4   1.0000      -1.593225       -43.3538
   5   1.0000      -1.437987       -39.1296
   6   1.0000      -1.034434       -28.1484
   7   1.0000      -0.866786       -23.5865
   8   1.0000      -0.753969       -20.5165
   9   1.0000      -0.711520       -19.3615
  10   1.0000      -0.699212       -19.0265
  11   1.0000      -0.648037       -17.6340
  12   1.0000      -0.595546       -16.2056
  13   1.0000      -0.576763       -15.6945
  14   1.0000      -0.561579       -15.2813
  15   1.0000      -0.533873       -14.5274
  16   1.0000      -0.503414       -13.6986
  17   0.0000       0.244035         6.6405
  18   0.0000       0.271736         7.3943
  19   0.0000       0.296755         8.0751
  20   0.0000       0.306754         8.3472
  21   0.0000       0.365442         9.9442

                 SPIN DOWN ORBITALS
  NO   OCC          E(Eh)            E(eV)
   0   1.0000     -26.277786      -715.0549
   1   1.0000     -20.612217      -560.8869
   2   1.0000     -11.379326      -309.6472
   3   1.0000     -11.241115      -305.8863
   4   1.0000      -1.592170       -43.3252
   5   1.0000      -1.312719       -35.7209
   6   1.0000      -1.015003       -27.6196
   7   1.0000      -0.846966       -23.0471
   8   1.0000      -0.726858       -19.7788
   9   1.0000      -0.686655       -18.6848
  10   1.0000      -0.677909       -18.4468
  11   1.0000      -0.594681       -16.1821
  12   1.0000      -0.575783       -15.6678
  13   1.0000      -0.550837       -14.9890
  14   1.0000      -0.531520       -14.4634
  15   1.0000      -0.496894       -13.5212
  16   0.0000       0.095052         2.5865
  17   0.0000       0.252487         6.8705
  18   0.0000       0.273822         7.4511
  19   0.0000       0.301943         8.2163
  20   0.0000       0.308705         8.4003

MULLIKEN ATOMIC CHARGES AND SPIN DENSITIES
------------------------------------------
   0 C :   -0.555557    0.063798
   1 C :    0.462361   -0.083389
   2 F :   -0.379395   -0.005171
   3 O :   -0.295581    0.953228
   4 H :    0.203385   -0.001639
   5 H :    0.190396   -0.003729
   6 H :    0.198457    0.009303
   7 H :    0.175933    0.067599
Sum of atomic charges       :    0.0000000

LOEWDIN ATOMIC CHARGES AND SPIN DENSITIES
-----------------------------------------
   0 C :   -0.398275    0.057107
   1 C :    0.080089   -0.024755
   2 F :   -0.198040   -0.006701
   3 O :   -0.084869    0.920626
   4 H :    0.156482   -0.001870
   5 H :    0.151667   -0.002509
   6 H :    0.155336    0.005181
   7 H :    0.137611    0.052920

  Mayer bond orders larger than 0.100000
B(  0-C ,  1-C ) :   0.9157 B(  0-C ,  4-H ) :   0.9060 B(  0-C ,  5-H ) :   0.9029
B(  0-C ,  6-H ) :   0.9061 B(  1-C ,  2-F ) :   0.8206 B(  1-C ,  3-O ) :   1.0217
B(  1-C ,  7-H ) :   0.8738

MP2 TOTAL ENERGY:     -252.891325389 Eh
FINAL SINGLE POINT ENERGY      -252.891325388946

DIPOLE MOMENT
-------------
                                X             Y             Z
Electronic contribution:     -1.29295       3.36243       3.23402
Nuclear contribution   :      1.76167      -4.06855      -3.51899
                        -----------------------------------------
Total Dipole Moment    :      0.46872      -0.70613      -0.28497
                        -----------------------------------------
Magnitude (a.u.)       :      0.89416
Magnitude (Debye)      :      2.27277

VIBRATIONAL FREQUENCIES
-----------------------

Scaling factor for frequencies =  1.000000000 (already applied!)

   0:         0.00 cm**-1
   1:         0.00 cm**-1
   2:         0.00 cm**-1
   3:         0.00 cm**-1
   4:         0.00 cm**-1
   5:         0.00 cm**-1
   6:       244.86 cm**-1
   7:       366.23 cm**-1
   8:       447.15 cm**-1
   9:       566.45 cm**-1
  10:       895.00 cm**-1
  11:       965.90 cm**-1
  12:      1087.98 cm**-1
  13:      1114.30 cm**-1
  14:      1187.36 cm**-1
  15:      1316.92 cm**-1
  16:      1395.19 cm**-1
  17:      1456.94 cm**-1
  18:      1547.77 cm**-1
  19:      1555.27 cm**-1
  20:      3072.43 cm**-1
  21:      3136.83 cm**-1
  22:      3239.81 cm**-1
  23:      3245.86 cm**-1

IR SPECTRUM
-----------

 Mode   freq       eps      Int      T**2         TX        TY        TZ
       cm**-1   L/(mol*cm) km/mol    a.u.
----------------------------------------------------------------------------
  6:    244.86   0.000030    0.15  0.000038  (-0.005011 -0.003384  0.001219)
  7:    366.23   0.000079    0.40  0.000067  ( 0.002142 -0.002744  0.007433)
  8:    447.15   0.002950   14.91  0.002059  ( 0.014974 -0.014139 -0.040432)
  9:    566.45   0.001268    6.41  0.000699  (-0.019863  0.011521 -0.013088)
 10:    895.00   0.003585   18.12  0.001250  (-0.013017 -0.032559 -0.004540)
 11:    965.90   0.003304   16.70  0.001068  ( 0.005611  0.031096  0.008311)
 12:   1087.98   0.006546   33.08  0.001878  (-0.031597 -0.018435 -0.023226)
 13:   1114.30   0.011222   56.71  0.003143  ( 0.004921  0.052728  0.018396)
 14:   1187.36   0.013638   68.92  0.003584  (-0.035949 -0.047661  0.004529)
 15:   1316.92   0.000295    1.49  0.000070  (-0.007058  0.001677  0.004162)
 16:   1395.19   0.007701   38.92  0.001723  ( 0.026870  0.028235  0.014260)
 17:   1456.94   0.002477   12.52  0.000531  ( 0.005806  0.012397  0.018524)
 18:   1547.77   0.001163    5.88  0.000235  (-0.009077  0.010241 -0.006877)
 19:   1555.27   0.000386    1.95  0.000078  ( 0.004754  0.006967 -0.002531)
 20:   3072.43   0.003283   16.59  0.000333  (-0.002548 -0.012177  0.013368)
 21:   3136.83   0.000794    4.01  0.000079  (-0.004647  0.003146  0.006894)
 22:   3239.81   0.000909    4.59  0.000088  (-0.005647  0.005670 -0.004848)
 23:   3245.86   0.001076    5.44  0.000103  (-0.005225 -0.008701 -0.000704)

--------------------------
THERMOCHEMISTRY AT 298.15K
--------------------------

Temperature         ... 298.15 K
Pressure            ... 1.00 atm
Total Mass          ... 63.05 AMU

Throughout the following assumptions are being made:
  (1) The electronic state is orbitally nondegenerate
      but the spin degeneracy is treated
  (2) There are no thermally accessible electronically excited states
  (3) Hindered rotations indicated by low frequency modes are not
      treated as such but are treated as vibrations and this may
      cause some error
  (4) All equations used are the standard statistical mechanics
      equations for an ideal gas
  (5) All vibrations are strictly harmonic

freq.     244.86  E(vib)   ...       0.31
freq.     366.23  E(vib)   ...       0.22
freq.     447.15  E(vib)   ...       0.17
freq.     566.45  E(vib)   ...       0.11
freq.     895.00  E(vib)   ...       0.03
freq.     965.90  E(vib)   ...       0.03
freq.    1087.98  E(vib)   ...       0.02
freq.    1114.30  E(vib)   ...       0.01
freq.    1187.36  E(vib)   ...       0.01
freq.    1316.92  E(vib)   ...       0.01
freq.    1395.19  E(vib)   ...       0.00
freq.    1456.94  E(vib)   ...       0.00
freq.    1547.77  E(vib)   ...       0.00
freq.    1555.27  E(vib)   ...       0.00
freq.    3072.43  E(vib)   ...       0.00
freq.    3136.83  E(vib)   ...       0.00
freq.    3239.81  E(vib)   ...       0.00
freq.    3245.86  E(vib)   ...       0.00

------------
INNER ENERGY
------------

The inner energy is: U= E(el) + E(ZPE) + E(vib) + E(rot) + E(trans)
    E(el)   - is the total energy from the electronic structure calculation
              = E(kin-el) + E(nuc-el) + E(el-el) + E(nuc-nuc)
    E(ZPE)  - the the zero temperature vibrational energy from the frequency calculation
    E(vib)  - the the finite temperature correction to E(ZPE) due to population
              of excited vibrational states
    E(rot)  - is the rotational thermal energy
    E(trans)- is the translational thermal energy

Summary of contributions to the inner energy U:
Electronic energy                ...   -252.89132539 Eh
Zero point energy                ...      0.06115111 Eh      38.37 kcal/mol
Thermal vibrational correction   ...      0.00147939 Eh       0.93 kcal/mol
Thermal rotational correction    ...      0.00141627 Eh       0.89 kcal/mol
Thermal translational correction ...      0.00141627 Eh       0.89 kcal/mol
-----------------------------------------------------------------------
Total thermal energy                   -252.82586236 Eh

Summary of corrections to the electronic energy:
(perhaps to be used in another calculation)
Total thermal correction                  0.00431193 Eh       2.71 kcal/mol
Non-thermal (ZPE) correction              0.06115111 Eh      38.37 kcal/mol
-----------------------------------------------------------------------
Total correction                          0.06546304 Eh      41.08 kcal/mol

--------
ENTHALPY
--------

The enthalpy is H = U + kB*T
                kB is Boltzmann's constant
Total free energy                 ...   -252.82586236 Eh
Thermal Enthalpy correction       ...      0.00094421 Eh       0.59 kcal/mol
-----------------------------------------------------------------------
Total Enthalpy                    ...   -252.82491815 Eh

Note: Only C1 symmetry has been detected, increase convergence thresholds
      if your molecule has a higher symmetry. Symmetry factor of 1.0 is
      used for the rotational entropy correction.

Note: Rotational entropy computed according to Herzberg
Infrared and Raman Spectra, Chapter V,1, Van Nostrand Reinhold, 1945
Point Group:  C1, Symmetry Number:   1
Rotational constants in cm-1:     0.332502     0.301540     0.177081

Vibrational entropy computed according to the QRRHO of S. Grimme
Chem.Eur.J. 2012 18 9955

-------
ENTROPY
-------

The entropy contributions are T*S = T*(S(el)+S(vib)+S(rot)+S(trans))
     S(el)   - electronic entropy
     S(vib)  - vibrational entropy
     S(rot)  - rotational entropy
     S(trans)- translational entropy
The entropies will be listed as multiplied by the temperature to get
units of energy

Electronic entropy                ...      0.00065446 Eh      0.41 kcal/mol
Vibrational entropy               ...      0.00222512 Eh      1.40 kcal/mol
Rotational entropy                ...      0.01141386 Eh      7.16 kcal/mol
Translational entropy             ...      0.01821802 Eh     11.43 kcal/mol
-----------------------------------------------------------------------
Final entropy term                ...      0.03251146 Eh     20.40 kcal/mol

In case the symmetry of your molecule has not been determined correctly
or in case you have a reason to use a different symmetry number we print
out the resulting rotational entropy values for sn=1,12 :
 --------------------------------------------------------
|  sn= 1 | S(rot)=       0.01141386 Eh      7.16 kcal/mol|
|  sn= 2 | S(rot)=       0.01075940 Eh      6.75 kcal/mol|
|  sn= 3 | S(rot)=       0.01037657 Eh      6.51 kcal/mol|
|  sn= 4 | S(rot)=       0.01010494 Eh      6.34 kcal/mol|
|  sn= 5 | S(rot)=       0.00989426 Eh      6.21 kcal/mol|
|  sn= 6 | S(rot)=       0.00972211 Eh      6.10 kcal/mol|
|  sn= 7 | S(rot)=       0.00957657 Eh      6.01 kcal/mol|
|  sn= 8 | S(rot)=       0.00945049 Eh      5.93 kcal/mol|
|  sn= 9 | S(rot)=       0.00933928 Eh      5.86 kcal/mol|
|  sn=10 | S(rot)=       0.00923980 Eh      5.80 kcal/mol|
|  sn=11 | S(rot)=       0.00914981 Eh      5.74 kcal/mol|
|  sn=12 | S(rot)=       0.00906766 Eh      5.69 kcal/mol|
 --------------------------------------------------------

-------------------
GIBBS FREE ENERGY
-------------------

The Gibbs free energy is G = H - T*S

Total enthalpy                    ...   -252.82491815 Eh
Total entropy correction          ...     -0.03251146 Eh    -20.40 kcal/mol
-----------------------------------------------------------------------
Final Gibbs free energy         ...   -252.85742960 Eh

For completeness - the Gibbs free energy minus the electronic energy
G-E(el)                           ...      0.03389579 Eh     21.27 kcal/mol

                             ****ORCA TERMINATED NORMALLY****
TOTAL RUN TIME: 0 days 0 hours 16 minutes 8 seconds 499 msec
