                         Program Version 5.0.1 -  RELEASE  -
|  1> ! MP2 UHF 6-31G(d) opt NumFreq NoFrozenCore VERYTIGHTSCF VERYTIGHTOPT
|  2>
|  3> * XYZfile 0 2 input.xyz
|  4>
|  5>                          ****END OF INPUT****
 Total Charge           Charge          ....    0
 Multiplicity           Mult            ....    2
 Number of Electrons    NEL             ....   41
MP2 TOTAL ENERGY:     -351.755520048 Eh
FINAL SINGLE POINT ENERGY      -351.755520048064
MP2 TOTAL ENERGY:     -351.852214051 Eh
FINAL SINGLE POINT ENERGY      -351.852214051355
MP2 TOTAL ENERGY:     -351.884077555 Eh
FINAL SINGLE POINT ENERGY      -351.884077555299
MP2 TOTAL ENERGY:     -351.892658624 Eh
FINAL SINGLE POINT ENERGY      -351.892658624019
MP2 TOTAL ENERGY:     -351.895496191 Eh
FINAL SINGLE POINT ENERGY      -351.895496190948
MP2 TOTAL ENERGY:     -351.895934001 Eh
FINAL SINGLE POINT ENERGY      -351.895934001194
FINAL SINGLE POINT ENERGY      -351.896145209363
FINAL SINGLE POINT ENERGY      -351.896165162683
MP2 TOTAL ENERGY:     -351.896171872 Eh
FINAL SINGLE POINT ENERGY      -351.896171871980
MP2 TOTAL ENERGY:     -351.896172620 Eh
FINAL SINGLE POINT ENERGY      -351.896172620396
MP2 TOTAL ENERGY:     -351.896172859 Eh
FINAL SINGLE POINT ENERGY      -351.896172858917
MP2 TOTAL ENERGY:     -351.896172889 Eh
FINAL SINGLE POINT ENERGY      -351.896172888650
MP2 TOTAL ENERGY:     -351.896172898 Eh
FINAL SINGLE POINT ENERGY      -351.896172898146
                    ***********************HURRAY********************

CARTESIAN COORDINATES (ANGSTROEM)
---------------------------------
  C      0.883344    0.068847   -0.024666
  H      0.495765    0.373544    0.948708
  C      0.399863    1.030880   -1.104435
  F      0.900690    0.598815   -2.323194
  O     -0.942694    1.108310   -1.080546
  H      0.558507   -0.944703   -0.268485
  F      2.269057    0.110075   -0.004022
  H      0.794738    2.042932   -0.920761

 Multiplicity           Mult            ....    2
 Number of Electrons    NEL             ....   41
 Basis Dimension        Dim             ....   76

ORBITAL ENERGIES
----------------
                 SPIN UP ORBITALS
  NO   OCC          E(Eh)            E(eV)
   0   1.0000     -26.295061      -715.5250
   1   1.0000     -26.293850      -715.4920
   2   1.0000     -20.673066      -562.5427
   3   1.0000     -11.390568      -309.9531
   4   1.0000     -11.339631      -308.5670
   5   1.0000      -1.616021       -43.9742
   6   1.0000      -1.598884       -43.5078
   7   1.0000      -1.458506       -39.6880
   8   1.0000      -1.039479       -28.2857
   9   1.0000      -0.887783       -24.1578
  10   1.0000      -0.780926       -21.2501
  11   1.0000      -0.744262       -20.2524
  12   1.0000      -0.739547       -20.1241
  13   1.0000      -0.705779       -19.2052
  14   1.0000      -0.686484       -18.6802
  15   1.0000      -0.658682       -17.9236
  16   1.0000      -0.638680       -17.3794
  17   1.0000      -0.596393       -16.2287
  18   1.0000      -0.559983       -15.2379
  19   1.0000      -0.550083       -14.9685
  20   1.0000      -0.508318       -13.8320
  21   0.0000       0.244529         6.6540
  22   0.0000       0.247769         6.7421
  23   0.0000       0.282422         7.6851
  24   0.0000       0.302963         8.2440
  25   0.0000       0.369852        10.0642

                 SPIN DOWN ORBITALS
  NO   OCC          E(Eh)            E(eV)
   0   1.0000     -26.294851      -715.5193
   1   1.0000     -26.294375      -715.5063
   2   1.0000     -20.632921      -561.4503
   3   1.0000     -11.393734      -310.0393
   4   1.0000     -11.337272      -308.5029
   5   1.0000      -1.614740       -43.9393
   6   1.0000      -1.598185       -43.4888
   7   1.0000      -1.333583       -36.2886
   8   1.0000      -1.019495       -27.7419
   9   1.0000      -0.869721       -23.6663
  10   1.0000      -0.757023       -20.5997
  11   1.0000      -0.731693       -19.9104
  12   1.0000      -0.718626       -19.5548
  13   1.0000      -0.695130       -18.9154
  14   1.0000      -0.675402       -18.3786
  15   1.0000      -0.637669       -17.3519
  16   1.0000      -0.585699       -15.9377
  17   1.0000      -0.548054       -14.9133
  18   1.0000      -0.542696       -14.7675
  19   1.0000      -0.512146       -13.9362
  20   0.0000       0.074472         2.0265
  21   0.0000       0.246978         6.7206
  22   0.0000       0.253343         6.8938
  23   0.0000       0.286433         7.7942
  24   0.0000       0.306569         8.3422

MULLIKEN ATOMIC CHARGES AND SPIN DENSITIES
------------------------------------------
   0 C :    0.042760    0.061910
   1 H :    0.177447   -0.002774
   2 C :    0.417230   -0.086865
   3 F :   -0.365145   -0.005213
   4 O :   -0.296502    0.949178
   5 H :    0.187552    0.000304
   6 F :   -0.362023    0.004585
   7 H :    0.198681    0.078875
Sum of atomic charges       :   -0.0000000

LOEWDIN ATOMIC CHARGES AND SPIN DENSITIES
-----------------------------------------
   0 C :   -0.055694    0.052507
   1 H :    0.138226   -0.002095
   2 C :    0.058400   -0.025277
   3 F :   -0.178168   -0.006586
   4 O :   -0.077627    0.914996
   5 H :    0.142841   -0.000861
   6 F :   -0.180737    0.004730
   7 H :    0.152759    0.062586

  Mayer bond orders larger than 0.100000
B(  0-C ,  1-H ) :   0.8908 B(  0-C ,  2-C ) :   0.8918 B(  0-C ,  5-H ) :   0.8911
B(  0-C ,  6-F ) :   0.8235 B(  2-C ,  3-F ) :   0.8339 B(  2-C ,  4-O ) :   1.0119
B(  2-C ,  7-H ) :   0.8581

MP2 TOTAL ENERGY:     -351.896172747 Eh
FINAL SINGLE POINT ENERGY      -351.896172747240

DIPOLE MOMENT
-------------
                                X             Y             Z
Electronic contribution:      1.76036      -0.06609      -2.16556
Nuclear contribution   :     -1.96797       0.18753       2.82174
                        -----------------------------------------
Total Dipole Moment    :     -0.20762       0.12144       0.65618
                        -----------------------------------------
Magnitude (a.u.)       :      0.69888
Magnitude (Debye)      :      1.77640

VIBRATIONAL FREQUENCIES
-----------------------

Scaling factor for frequencies =  1.000000000 (already applied!)

   0:         0.00 cm**-1
   1:         0.00 cm**-1
   2:         0.00 cm**-1
   3:         0.00 cm**-1
   4:         0.00 cm**-1
   5:         0.00 cm**-1
   6:       126.41 cm**-1
   7:       247.86 cm**-1
   8:       414.64 cm**-1
   9:       482.82 cm**-1
  10:       580.70 cm**-1
  11:       902.52 cm**-1
  12:      1053.03 cm**-1
  13:      1121.76 cm**-1
  14:      1139.30 cm**-1
  15:      1175.80 cm**-1
  16:      1226.56 cm**-1
  17:      1302.07 cm**-1
  18:      1397.37 cm**-1
  19:      1455.66 cm**-1
  20:      1569.85 cm**-1
  21:      3060.12 cm**-1
  22:      3149.37 cm**-1
  23:      3225.98 cm**-1

IR SPECTRUM
-----------

 Mode   freq       eps      Int      T**2         TX        TY        TZ
       cm**-1   L/(mol*cm) km/mol    a.u.
----------------------------------------------------------------------------
  6:    126.41   0.001682    8.50  0.004153  ( 0.017310 -0.053770 -0.031022)
  7:    247.86   0.001396    7.05  0.001757  (-0.008871 -0.036244  0.019110)
  8:    414.64   0.000815    4.12  0.000613  (-0.000533  0.015427 -0.019359)
  9:    482.82   0.004786   24.18  0.003093  (-0.009466  0.041138 -0.036210)
 10:    580.70   0.001935    9.78  0.001040  (-0.024159 -0.008511 -0.019590)
 11:    902.52   0.008242   41.65  0.002850  ( 0.008822 -0.009627 -0.051761)
 12:   1053.03   0.001060    5.36  0.000314  ( 0.006380 -0.002737  0.016306)
 13:   1121.76   0.008662   43.78  0.002410  (-0.024016 -0.012382 -0.040984)
 14:   1139.30   0.008812   44.53  0.002414  ( 0.047951 -0.001844 -0.010540)
 15:   1175.80   0.021630  109.31  0.005741  ( 0.055705 -0.022386 -0.046224)
 16:   1226.56   0.000957    4.84  0.000244  ( 0.010931  0.006053  0.009351)
 17:   1302.07   0.000405    2.04  0.000097  (-0.001769 -0.009186 -0.003077)
 18:   1397.37   0.007633   38.57  0.001705  ( 0.026050 -0.005306 -0.031587)
 19:   1455.66   0.003825   19.33  0.000820  ( 0.027856 -0.004433  0.004950)
 20:   1569.85   0.000252    1.27  0.000050  (-0.003557  0.003271 -0.005174)
 21:   3060.12   0.001574    7.95  0.000160  (-0.005761  0.009801  0.005587)
 22:   3149.37   0.002731   13.80  0.000271  ( 0.009683  0.008970 -0.009816)
 23:   3225.98   0.003311   16.73  0.000320  (-0.001019  0.012143  0.013106)

--------------------------
THERMOCHEMISTRY AT 298.15K
--------------------------

Temperature         ... 298.15 K
Pressure            ... 1.00 atm
Total Mass          ... 81.04 AMU

Throughout the following assumptions are being made:
  (1) The electronic state is orbitally nondegenerate
      but the spin degeneracy is treated
  (2) There are no thermally accessible electronically excited states
  (3) Hindered rotations indicated by low frequency modes are not
      treated as such but are treated as vibrations and this may
      cause some error
  (4) All equations used are the standard statistical mechanics
      equations for an ideal gas
  (5) All vibrations are strictly harmonic

freq.     126.41  E(vib)   ...       0.43
freq.     247.86  E(vib)   ...       0.31
freq.     414.64  E(vib)   ...       0.19
freq.     482.82  E(vib)   ...       0.15
freq.     580.70  E(vib)   ...       0.11
freq.     902.52  E(vib)   ...       0.03
freq.    1053.03  E(vib)   ...       0.02
freq.    1121.76  E(vib)   ...       0.01
freq.    1139.30  E(vib)   ...       0.01
freq.    1175.80  E(vib)   ...       0.01
freq.    1226.56  E(vib)   ...       0.01
freq.    1302.07  E(vib)   ...       0.01
freq.    1397.37  E(vib)   ...       0.00
freq.    1455.66  E(vib)   ...       0.00
freq.    1569.85  E(vib)   ...       0.00
freq.    3060.12  E(vib)   ...       0.00
freq.    3149.37  E(vib)   ...       0.00
freq.    3225.98  E(vib)   ...       0.00

------------
INNER ENERGY
------------

The inner energy is: U= E(el) + E(ZPE) + E(vib) + E(rot) + E(trans)
    E(el)   - is the total energy from the electronic structure calculation
              = E(kin-el) + E(nuc-el) + E(el-el) + E(nuc-nuc)
    E(ZPE)  - the the zero temperature vibrational energy from the frequency calculation
    E(vib)  - the the finite temperature correction to E(ZPE) due to population
              of excited vibrational states
    E(rot)  - is the rotational thermal energy
    E(trans)- is the translational thermal energy

Summary of contributions to the inner energy U:
Electronic energy                ...   -351.89617276 Eh
Zero point energy                ...      0.05383727 Eh      33.78 kcal/mol
Thermal vibrational correction   ...      0.00206773 Eh       1.30 kcal/mol
Thermal rotational correction    ...      0.00141627 Eh       0.89 kcal/mol
Thermal translational correction ...      0.00141627 Eh       0.89 kcal/mol
-----------------------------------------------------------------------
Total thermal energy                   -351.83743522 Eh

Summary of corrections to the electronic energy:
(perhaps to be used in another calculation)
Total thermal correction                  0.00490027 Eh       3.07 kcal/mol
Non-thermal (ZPE) correction              0.05383727 Eh      33.78 kcal/mol
-----------------------------------------------------------------------
Total correction                          0.05873754 Eh      36.86 kcal/mol

--------
ENTHALPY
--------

The enthalpy is H = U + kB*T
                kB is Boltzmann's constant
Total free energy                 ...   -351.83743522 Eh
Thermal Enthalpy correction       ...      0.00094421 Eh       0.59 kcal/mol
-----------------------------------------------------------------------
Total Enthalpy                    ...   -351.83649101 Eh

Note: Only C1 symmetry has been detected, increase convergence thresholds
      if your molecule has a higher symmetry. Symmetry factor of 1.0 is
      used for the rotational entropy correction.

Note: Rotational entropy computed according to Herzberg
Infrared and Raman Spectra, Chapter V,1, Van Nostrand Reinhold, 1945
Point Group:  C1, Symmetry Number:   1
Rotational constants in cm-1:     0.301460     0.130309     0.098311

Vibrational entropy computed according to the QRRHO of S. Grimme
Chem.Eur.J. 2012 18 9955

-------
ENTROPY
-------

The entropy contributions are T*S = T*(S(el)+S(vib)+S(rot)+S(trans))
     S(el)   - electronic entropy
     S(vib)  - vibrational entropy
     S(rot)  - rotational entropy
     S(trans)- translational entropy
The entropies will be listed as multiplied by the temperature to get
units of energy

Electronic entropy                ...      0.00065446 Eh      0.41 kcal/mol
Vibrational entropy               ...      0.00343061 Eh      2.15 kcal/mol
Rotational entropy                ...      0.01213402 Eh      7.61 kcal/mol
Translational entropy             ...      0.01857352 Eh     11.66 kcal/mol
-----------------------------------------------------------------------
Final entropy term                ...      0.03479260 Eh     21.83 kcal/mol

In case the symmetry of your molecule has not been determined correctly
or in case you have a reason to use a different symmetry number we print
out the resulting rotational entropy values for sn=1,12 :
 --------------------------------------------------------
|  sn= 1 | S(rot)=       0.01213402 Eh      7.61 kcal/mol|
|  sn= 2 | S(rot)=       0.01147956 Eh      7.20 kcal/mol|
|  sn= 3 | S(rot)=       0.01109673 Eh      6.96 kcal/mol|
|  sn= 4 | S(rot)=       0.01082511 Eh      6.79 kcal/mol|
|  sn= 5 | S(rot)=       0.01061442 Eh      6.66 kcal/mol|
|  sn= 6 | S(rot)=       0.01044228 Eh      6.55 kcal/mol|
|  sn= 7 | S(rot)=       0.01029673 Eh      6.46 kcal/mol|
|  sn= 8 | S(rot)=       0.01017065 Eh      6.38 kcal/mol|
|  sn= 9 | S(rot)=       0.01005944 Eh      6.31 kcal/mol|
|  sn=10 | S(rot)=       0.00995996 Eh      6.25 kcal/mol|
|  sn=11 | S(rot)=       0.00986997 Eh      6.19 kcal/mol|
|  sn=12 | S(rot)=       0.00978782 Eh      6.14 kcal/mol|
 --------------------------------------------------------

-------------------
GIBBS FREE ENERGY
-------------------

The Gibbs free energy is G = H - T*S

Total enthalpy                    ...   -351.83649101 Eh
Total entropy correction          ...     -0.03479260 Eh    -21.83 kcal/mol
-----------------------------------------------------------------------
Final Gibbs free energy         ...   -351.87128362 Eh

For completeness - the Gibbs free energy minus the electronic energy
G-E(el)                           ...      0.02488914 Eh     15.62 kcal/mol

                             ****ORCA TERMINATED NORMALLY****
TOTAL RUN TIME: 0 days 0 hours 30 minutes 18 seconds 613 msec
