                         Program Version 5.0.1 -  RELEASE  -
|  1> ! MP2 UHF 6-31G(d) OPTTS NumFreq NoFrozenCore VERYTIGHTSCF VERYTIGHTOPT
|  2>
|  3> * XYZfile 0 2 input.xyz
|  4>
|  5>                          ****END OF INPUT****
 Total Charge           Charge          ....    0
 Multiplicity           Mult            ....    2
 Number of Electrons    NEL             ....   33
MP2 TOTAL ENERGY:     -252.804350537 Eh
FINAL SINGLE POINT ENERGY      -252.804350537290
MP2 TOTAL ENERGY:     -252.816720061 Eh
FINAL SINGLE POINT ENERGY      -252.816720060664
MP2 TOTAL ENERGY:     -252.827490044 Eh
FINAL SINGLE POINT ENERGY      -252.827490044497
MP2 TOTAL ENERGY:     -252.836946432 Eh
FINAL SINGLE POINT ENERGY      -252.836946432470
MP2 TOTAL ENERGY:     -252.843185819 Eh
FINAL SINGLE POINT ENERGY      -252.843185818984
MP2 TOTAL ENERGY:     -252.849913177 Eh
FINAL SINGLE POINT ENERGY      -252.849913177245
FINAL SINGLE POINT ENERGY      -252.852311751063
FINAL SINGLE POINT ENERGY      -252.853465319624
FINAL SINGLE POINT ENERGY      -252.854234115477
FINAL SINGLE POINT ENERGY      -252.854745321475
FINAL SINGLE POINT ENERGY      -252.855623346879
FINAL SINGLE POINT ENERGY      -252.855636251926
FINAL SINGLE POINT ENERGY      -252.855638401436
FINAL SINGLE POINT ENERGY      -252.855638852475
MP2 TOTAL ENERGY:     -252.855639069 Eh
FINAL SINGLE POINT ENERGY      -252.855639069080
MP2 TOTAL ENERGY:     -252.855639126 Eh
FINAL SINGLE POINT ENERGY      -252.855639125576
MP2 TOTAL ENERGY:     -252.855639160 Eh
FINAL SINGLE POINT ENERGY      -252.855639159722
MP2 TOTAL ENERGY:     -252.855639187 Eh
FINAL SINGLE POINT ENERGY      -252.855639187454
MP2 TOTAL ENERGY:     -252.855639204 Eh
FINAL SINGLE POINT ENERGY      -252.855639204176
                    ***********************HURRAY********************

CARTESIAN COORDINATES (ANGSTROEM)
---------------------------------
  C      0.980836    0.141504   -0.124748
  C      0.438719    0.686144    1.180111
  F      1.232351    1.736184    1.596956
  O     -0.705283    0.600965    1.564142
  H      0.743980    0.884199   -0.891191
  H      0.482638   -0.796913   -0.361957
  H      2.061006    0.012106   -0.082397
  H      0.975865   -0.363973    2.095787

 Multiplicity           Mult            ....    2
 Number of Electrons    NEL             ....   33
 Basis Dimension        Dim             ....   64

ORBITAL ENERGIES
----------------
                 SPIN UP ORBITALS
  NO   OCC          E(Eh)            E(eV)
   0   1.0000     -26.297464      -715.5904
   1   1.0000     -20.634002      -561.4797
   2   1.0000     -11.410197      -310.4873
   3   1.0000     -11.256246      -306.2980
   4   1.0000      -1.617195       -44.0061
   5   1.0000      -1.473931       -40.1077
   6   1.0000      -1.041181       -28.3320
   7   1.0000      -0.838076       -22.8052
   8   1.0000      -0.748052       -20.3555
   9   1.0000      -0.730793       -19.8859
  10   1.0000      -0.715093       -19.4587
  11   1.0000      -0.635495       -17.2927
  12   1.0000      -0.616109       -16.7652
  13   1.0000      -0.589363       -16.0374
  14   1.0000      -0.575373       -15.6567
  15   1.0000      -0.520413       -14.1611
  16   1.0000      -0.454364       -12.3639
  17   0.0000       0.187847         5.1116
  18   0.0000       0.251595         6.8462
  19   0.0000       0.288814         7.8590
  20   0.0000       0.306522         8.3409
  21   0.0000       0.374554        10.1921

                 SPIN DOWN ORBITALS
  NO   OCC          E(Eh)            E(eV)
   0   1.0000     -26.298268      -715.6123
   1   1.0000     -20.603992      -560.6631
   2   1.0000     -11.421576      -310.7969
   3   1.0000     -11.253489      -306.2230
   4   1.0000      -1.618385       -44.0385
   5   1.0000      -1.402987       -38.1772
   6   1.0000      -1.032005       -28.0823
   7   1.0000      -0.829484       -22.5714
   8   1.0000      -0.717914       -19.5354
   9   1.0000      -0.710116       -19.3232
  10   1.0000      -0.707282       -19.2461
  11   1.0000      -0.607802       -16.5391
  12   1.0000      -0.602035       -16.3822
  13   1.0000      -0.572341       -15.5742
  14   1.0000      -0.491183       -13.3658
  15   1.0000      -0.483656       -13.1609
  16   0.0000       0.059321         1.6142
  17   0.0000       0.213761         5.8167
  18   0.0000       0.259760         7.0684
  19   0.0000       0.290225         7.8974
  20   0.0000       0.307276         8.3614

MULLIKEN ATOMIC CHARGES AND SPIN DENSITIES
------------------------------------------
   0 C :   -0.553978    0.019319
   1 C :    0.531691   -0.062929
   2 F :   -0.343618   -0.001568
   3 O :   -0.397789    0.347198
   4 H :    0.221539    0.018334
   5 H :    0.208772   -0.001640
   6 H :    0.203192   -0.003002
   7 H :    0.130192    0.684288
Sum of atomic charges       :   -0.0000000

LOEWDIN ATOMIC CHARGES AND SPIN DENSITIES
-----------------------------------------
   0 C :   -0.412631    0.034328
   1 C :    0.148346   -0.006495
   2 F :   -0.163202    0.002578
   3 O :   -0.204276    0.340641
   4 H :    0.171225    0.011754
   5 H :    0.161762   -0.001124
   6 H :    0.157919   -0.002475
   7 H :    0.140858    0.620793

  Mayer bond orders larger than 0.100000
B(  0-C ,  1-C ) :   0.9005 B(  0-C ,  4-H ) :   0.8930 B(  0-C ,  5-H ) :   0.9004
B(  0-C ,  6-H ) :   0.9006 B(  1-C ,  2-F ) :   0.8387 B(  1-C ,  3-O ) :   1.8003
B(  1-C ,  7-H ) :   0.3565 B(  3-O ,  7-H ) :   0.1041

MP2 TOTAL ENERGY:     -252.855639213 Eh
FINAL SINGLE POINT ENERGY      -252.855639212975

DIPOLE MOMENT
-------------
                                X             Y             Z
Electronic contribution:     -0.61784       3.63585       3.13367
Nuclear contribution   :      1.33928      -4.20330      -3.84353
                        -----------------------------------------
Total Dipole Moment    :      0.72144      -0.56745      -0.70986
                        -----------------------------------------
Magnitude (a.u.)       :      1.16033
Magnitude (Debye)      :      2.94932

VIBRATIONAL FREQUENCIES
-----------------------

Scaling factor for frequencies =  1.000000000 (already applied!)

   0:         0.00 cm**-1
   1:         0.00 cm**-1
   2:         0.00 cm**-1
   3:         0.00 cm**-1
   4:         0.00 cm**-1
   5:         0.00 cm**-1
   6:     -1874.12 cm**-1 ***imaginary mode***
   7:       233.92 cm**-1
   8:       399.79 cm**-1
   9:       540.94 cm**-1
  10:       652.22 cm**-1
  11:       725.29 cm**-1
  12:       756.02 cm**-1
  13:       876.10 cm**-1
  14:      1051.18 cm**-1
  15:      1133.15 cm**-1
  16:      1229.60 cm**-1
  17:      1453.18 cm**-1
  18:      1536.49 cm**-1
  19:      1544.42 cm**-1
  20:      1801.88 cm**-1
  21:      3135.33 cm**-1
  22:      3234.13 cm**-1
  23:      3265.32 cm**-1

IR SPECTRUM
-----------

 Mode   freq       eps      Int      T**2         TX        TY        TZ
       cm**-1   L/(mol*cm) km/mol    a.u.
----------------------------------------------------------------------------
  7:    233.92   0.000071    0.36  0.000094  ( 0.005300  0.008115  0.000699)
  8:    399.79   0.000010    0.05  0.000008  ( 0.001939 -0.001768 -0.001123)
  9:    540.94   0.004432   22.40  0.002557  ( 0.013193 -0.016734 -0.045856)
 10:    652.22   0.001104    5.58  0.000528  ( 0.018163 -0.010308  0.009587)
 11:    725.29   0.000512    2.59  0.000220  (-0.008653  0.007430 -0.009506)
 12:    756.02   0.005679   28.70  0.002344  (-0.025873  0.039246 -0.011587)
 13:    876.10   0.009627   48.65  0.003429  ( 0.026011  0.050598  0.013868)
 14:   1051.18   0.007805   39.44  0.002317  (-0.024428 -0.033482 -0.024483)
 15:   1133.15   0.004667   23.58  0.001285  ( 0.004751  0.011663 -0.033565)
 16:   1229.60   0.032821  165.86  0.008330  ( 0.035333  0.075890  0.036359)
 17:   1453.18   0.003754   18.97  0.000806  ( 0.000137 -0.016647 -0.023003)
 18:   1536.49   0.002324   11.75  0.000472  (-0.021712  0.000239  0.000771)
 19:   1544.42   0.001197    6.05  0.000242  ( 0.001296  0.014190 -0.006238)
 20:   1801.88   0.026452  133.68  0.004581  ( 0.056713  0.023863 -0.028200)
 21:   3135.33   0.000101    0.51  0.000010  (-0.000881 -0.000085  0.003051)
 22:   3234.13   0.000483    2.44  0.000047  (-0.004416  0.004366  0.002841)
 23:   3265.32   0.000307    1.55  0.000029  (-0.004375 -0.003127 -0.000658)

--------------------------
THERMOCHEMISTRY AT 298.15K
--------------------------

Temperature         ... 298.15 K
Pressure            ... 1.00 atm
Total Mass          ... 63.05 AMU

Throughout the following assumptions are being made:
  (1) The electronic state is orbitally nondegenerate
      but the spin degeneracy is treated
  (2) There are no thermally accessible electronically excited states
  (3) Hindered rotations indicated by low frequency modes are not
      treated as such but are treated as vibrations and this may
      cause some error
  (4) All equations used are the standard statistical mechanics
      equations for an ideal gas
  (5) All vibrations are strictly harmonic

freq.     233.92  E(vib)   ...       0.32
freq.     399.79  E(vib)   ...       0.19
freq.     540.94  E(vib)   ...       0.12
freq.     652.22  E(vib)   ...       0.08
freq.     725.29  E(vib)   ...       0.06
freq.     756.02  E(vib)   ...       0.06
freq.     876.10  E(vib)   ...       0.04
freq.    1051.18  E(vib)   ...       0.02
freq.    1133.15  E(vib)   ...       0.01
freq.    1229.60  E(vib)   ...       0.01
freq.    1453.18  E(vib)   ...       0.00
freq.    1536.49  E(vib)   ...       0.00
freq.    1544.42  E(vib)   ...       0.00
freq.    1801.88  E(vib)   ...       0.00
freq.    3135.33  E(vib)   ...       0.00
freq.    3234.13  E(vib)   ...       0.00
freq.    3265.32  E(vib)   ...       0.00

------------
INNER ENERGY
------------

The inner energy is: U= E(el) + E(ZPE) + E(vib) + E(rot) + E(trans)
    E(el)   - is the total energy from the electronic structure calculation
              = E(kin-el) + E(nuc-el) + E(el-el) + E(nuc-nuc)
    E(ZPE)  - the the zero temperature vibrational energy from the frequency calculation
    E(vib)  - the the finite temperature correction to E(ZPE) due to population
              of excited vibrational states
    E(rot)  - is the rotational thermal energy
    E(trans)- is the translational thermal energy

Summary of contributions to the inner energy U:
Electronic energy                ...   -252.85563922 Eh
Zero point energy                ...      0.05369407 Eh      33.69 kcal/mol
Thermal vibrational correction   ...      0.00148474 Eh       0.93 kcal/mol
Thermal rotational correction    ...      0.00141627 Eh       0.89 kcal/mol
Thermal translational correction ...      0.00141627 Eh       0.89 kcal/mol
-----------------------------------------------------------------------
Total thermal energy                   -252.79762787 Eh

Summary of corrections to the electronic energy:
(perhaps to be used in another calculation)
Total thermal correction                  0.00431728 Eh       2.71 kcal/mol
Non-thermal (ZPE) correction              0.05369407 Eh      33.69 kcal/mol
-----------------------------------------------------------------------
Total correction                          0.05801135 Eh      36.40 kcal/mol

--------
ENTHALPY
--------

The enthalpy is H = U + kB*T
                kB is Boltzmann's constant
Total free energy                 ...   -252.79762787 Eh
Thermal Enthalpy correction       ...      0.00094421 Eh       0.59 kcal/mol
-----------------------------------------------------------------------
Total Enthalpy                    ...   -252.79668366 Eh

Note: Only C1 symmetry has been detected, increase convergence thresholds
      if your molecule has a higher symmetry. Symmetry factor of 1.0 is
      used for the rotational entropy correction.

Note: Rotational entropy computed according to Herzberg
Infrared and Raman Spectra, Chapter V,1, Van Nostrand Reinhold, 1945
Point Group:  C1, Symmetry Number:   1
Rotational constants in cm-1:     0.335206     0.306027     0.174868

Vibrational entropy computed according to the QRRHO of S. Grimme
Chem.Eur.J. 2012 18 9955

-------
ENTROPY
-------

The entropy contributions are T*S = T*(S(el)+S(vib)+S(rot)+S(trans))
     S(el)   - electronic entropy
     S(vib)  - vibrational entropy
     S(rot)  - rotational entropy
     S(trans)- translational entropy
The entropies will be listed as multiplied by the temperature to get
units of energy

Electronic entropy                ...      0.00065446 Eh      0.41 kcal/mol
Vibrational entropy               ...      0.00220186 Eh      1.38 kcal/mol
Rotational entropy                ...      0.01140900 Eh      7.16 kcal/mol
Translational entropy             ...      0.01821802 Eh     11.43 kcal/mol
-----------------------------------------------------------------------
Final entropy term                ...      0.03248334 Eh     20.38 kcal/mol

In case the symmetry of your molecule has not been determined correctly
or in case you have a reason to use a different symmetry number we print
out the resulting rotational entropy values for sn=1,12 :
 --------------------------------------------------------
|  sn= 1 | S(rot)=       0.01140900 Eh      7.16 kcal/mol|
|  sn= 2 | S(rot)=       0.01075454 Eh      6.75 kcal/mol|
|  sn= 3 | S(rot)=       0.01037171 Eh      6.51 kcal/mol|
|  sn= 4 | S(rot)=       0.01010009 Eh      6.34 kcal/mol|
|  sn= 5 | S(rot)=       0.00988940 Eh      6.21 kcal/mol|
|  sn= 6 | S(rot)=       0.00971725 Eh      6.10 kcal/mol|
|  sn= 7 | S(rot)=       0.00957171 Eh      6.01 kcal/mol|
|  sn= 8 | S(rot)=       0.00944563 Eh      5.93 kcal/mol|
|  sn= 9 | S(rot)=       0.00933442 Eh      5.86 kcal/mol|
|  sn=10 | S(rot)=       0.00923494 Eh      5.80 kcal/mol|
|  sn=11 | S(rot)=       0.00914495 Eh      5.74 kcal/mol|
|  sn=12 | S(rot)=       0.00906280 Eh      5.69 kcal/mol|
 --------------------------------------------------------

-------------------
GIBBS FREE ENERGY
-------------------

The Gibbs free energy is G = H - T*S

Total enthalpy                    ...   -252.79668366 Eh
Total entropy correction          ...     -0.03248334 Eh    -20.38 kcal/mol
-----------------------------------------------------------------------
Final Gibbs free energy         ...   -252.82916699 Eh

For completeness - the Gibbs free energy minus the electronic energy
G-E(el)                           ...      0.02647222 Eh     16.61 kcal/mol

                             ****ORCA TERMINATED NORMALLY****
TOTAL RUN TIME: 0 days 0 hours 24 minutes 6 seconds 560 msec
