                         Program Version 5.0.1 -  RELEASE  -
|  1> ! MP2 UHF 6-31G(d) OPTTS NumFreq NoFrozenCore VERYTIGHTSCF VERYTIGHTOPT
|  2>
|  3> * XYZfile 0 2 input.xyz
|  4>
|  5>                          ****END OF INPUT****
 Total Charge           Charge          ....    0
 Multiplicity           Mult            ....    2
 Number of Electrons    NEL             ....   41
MP2 TOTAL ENERGY:     -351.846078968 Eh
FINAL SINGLE POINT ENERGY      -351.846078968380
MP2 TOTAL ENERGY:     -351.852141566 Eh
FINAL SINGLE POINT ENERGY      -351.852141566437
MP2 TOTAL ENERGY:     -351.854441072 Eh
FINAL SINGLE POINT ENERGY      -351.854441071724
MP2 TOTAL ENERGY:     -351.857709987 Eh
FINAL SINGLE POINT ENERGY      -351.857709986870
MP2 TOTAL ENERGY:     -351.859441849 Eh
FINAL SINGLE POINT ENERGY      -351.859441848710
MP2 TOTAL ENERGY:     -351.859997270 Eh
FINAL SINGLE POINT ENERGY      -351.859997270117
FINAL SINGLE POINT ENERGY      -351.858937311844
FINAL SINGLE POINT ENERGY      -351.856318041438
FINAL SINGLE POINT ENERGY      -351.856214915359
FINAL SINGLE POINT ENERGY      -351.857571650079
FINAL SINGLE POINT ENERGY      -351.859722169408
FINAL SINGLE POINT ENERGY      -351.859722196369
FINAL SINGLE POINT ENERGY      -351.859722218451
FINAL SINGLE POINT ENERGY      -351.859722236491
MP2 TOTAL ENERGY:     -351.859722251 Eh
FINAL SINGLE POINT ENERGY      -351.859722251246
MP2 TOTAL ENERGY:     -351.859722263 Eh
FINAL SINGLE POINT ENERGY      -351.859722263344
MP2 TOTAL ENERGY:     -351.859722273 Eh
FINAL SINGLE POINT ENERGY      -351.859722273232
MP2 TOTAL ENERGY:     -351.859722281 Eh
FINAL SINGLE POINT ENERGY      -351.859722281330
MP2 TOTAL ENERGY:     -351.859722288 Eh
FINAL SINGLE POINT ENERGY      -351.859722287983
                    ***********************HURRAY********************

CARTESIAN COORDINATES (ANGSTROEM)
---------------------------------
  C      0.764073   -0.087475   -0.066512
  H      0.342177    0.226715    0.888038
  C      0.174584    0.769761   -1.181215
  F      0.899687    0.592339   -2.328380
  O     -0.973888    1.134329   -1.206368
  H      0.487440   -1.123183   -0.285171
  F      2.140890    0.021074   -0.041604
  H      0.821545    2.057108   -0.734961

 Multiplicity           Mult            ....    2
 Number of Electrons    NEL             ....   41
 Basis Dimension        Dim             ....   76

ORBITAL ENERGIES
----------------
                 SPIN UP ORBITALS
  NO   OCC          E(Eh)            E(eV)
   0   1.0000     -26.314076      -716.0424
   1   1.0000     -26.305418      -715.8068
   2   1.0000     -20.650575      -561.9307
   3   1.0000     -11.423326      -310.8445
   4   1.0000     -11.353852      -308.9540
   5   1.0000      -1.638148       -44.5763
   6   1.0000      -1.611127       -43.8410
   7   1.0000      -1.491739       -40.5923
   8   1.0000      -1.043038       -28.3825
   9   1.0000      -0.861247       -23.4357
  10   1.0000      -0.773483       -21.0476
  11   1.0000      -0.763245       -20.7690
  12   1.0000      -0.752695       -20.4819
  13   1.0000      -0.714521       -19.4431
  14   1.0000      -0.698214       -18.9994
  15   1.0000      -0.654089       -17.7987
  16   1.0000      -0.643409       -17.5080
  17   1.0000      -0.606071       -16.4920
  18   1.0000      -0.563035       -15.3210
  19   1.0000      -0.530918       -14.4470
  20   1.0000      -0.470998       -12.8165
  21   0.0000       0.173925         4.7327
  22   0.0000       0.241254         6.5648
  23   0.0000       0.280451         7.6314
  24   0.0000       0.310484         8.4487
  25   0.0000       0.379263        10.3203

                 SPIN DOWN ORBITALS
  NO   OCC          E(Eh)            E(eV)
   0   1.0000     -26.314845      -716.0633
   1   1.0000     -26.305701      -715.8145
   2   1.0000     -20.621299      -561.1341
   3   1.0000     -11.434961      -311.1611
   4   1.0000     -11.350851      -308.8724
   5   1.0000      -1.639338       -44.6087
   6   1.0000      -1.611760       -43.8582
   7   1.0000      -1.423272       -38.7292
   8   1.0000      -1.033341       -28.1186
   9   1.0000      -0.854343       -23.2479
  10   1.0000      -0.761883       -20.7319
  11   1.0000      -0.749770       -20.4023
  12   1.0000      -0.737463       -20.0674
  13   1.0000      -0.700895       -19.0723
  14   1.0000      -0.693559       -18.8727
  15   1.0000      -0.650754       -17.7079
  16   1.0000      -0.596204       -16.2235
  17   1.0000      -0.569043       -15.4844
  18   1.0000      -0.504641       -13.7320
  19   1.0000      -0.499882       -13.6025
  20   0.0000       0.040613         1.1051
  21   0.0000       0.205708         5.5976
  22   0.0000       0.246421         6.7054
  23   0.0000       0.282075         7.6757
  24   0.0000       0.313006         8.5173

MULLIKEN ATOMIC CHARGES AND SPIN DENSITIES
------------------------------------------
   0 C :    0.039745    0.021537
   1 H :    0.197124   -0.002159
   2 C :    0.482553   -0.041110
   3 F :   -0.327098   -0.000064
   4 O :   -0.394308    0.316917
   5 H :    0.204993    0.014651
   6 F :   -0.352956   -0.001926
   7 H :    0.149947    0.692154
Sum of atomic charges       :    0.0000000

LOEWDIN ATOMIC CHARGES AND SPIN DENSITIES
-----------------------------------------
   0 C :   -0.070754    0.038153
   1 H :    0.148671   -0.001403
   2 C :    0.121788    0.006823
   3 F :   -0.138388    0.005143
   4 O :   -0.198327    0.311295
   5 H :    0.155977    0.009801
   6 F :   -0.174510   -0.001610
   7 H :    0.155542    0.631798

  Mayer bond orders larger than 0.100000
B(  0-C ,  1-H ) :   0.8893 B(  0-C ,  2-C ) :   0.8560 B(  0-C ,  5-H ) :   0.8817
B(  0-C ,  6-F ) :   0.8274 B(  2-C ,  3-F ) :   0.8563 B(  2-C ,  4-O ) :   1.8118
B(  2-C ,  7-H ) :   0.3469

MP2 TOTAL ENERGY:     -351.859722293 Eh
FINAL SINGLE POINT ENERGY      -351.859722293434

DIPOLE MOMENT
-------------
                                X             Y             Z
Electronic contribution:      2.08628      -0.35886      -2.31017
Nuclear contribution   :     -1.94654       0.06550       3.01113
                        -----------------------------------------
Total Dipole Moment    :      0.13974      -0.29336       0.70096
                        -----------------------------------------
Magnitude (a.u.)       :      0.77262
Magnitude (Debye)      :      1.96384

VIBRATIONAL FREQUENCIES
-----------------------

Scaling factor for frequencies =  1.000000000 (already applied!)

   0:         0.00 cm**-1
   1:         0.00 cm**-1
   2:         0.00 cm**-1
   3:         0.00 cm**-1
   4:         0.00 cm**-1
   5:         0.00 cm**-1
   6:     -1831.22 cm**-1 ***imaginary mode***
   7:       137.42 cm**-1
   8:       248.36 cm**-1
   9:       466.43 cm**-1
  10:       531.18 cm**-1
  11:       682.82 cm**-1
  12:       705.60 cm**-1
  13:       737.74 cm**-1
  14:       891.68 cm**-1
  15:      1100.65 cm**-1
  16:      1140.11 cm**-1
  17:      1229.21 cm**-1
  18:      1299.91 cm**-1
  19:      1433.88 cm**-1
  20:      1559.53 cm**-1
  21:      1817.38 cm**-1
  22:      3142.03 cm**-1
  23:      3230.23 cm**-1

IR SPECTRUM
-----------

 Mode   freq       eps      Int      T**2         TX        TY        TZ
       cm**-1   L/(mol*cm) km/mol    a.u.
----------------------------------------------------------------------------
  7:    137.42   0.002361   11.93  0.005361  ( 0.008091 -0.060388 -0.040606)
  8:    248.36   0.001517    7.67  0.001906  (-0.015815 -0.034231  0.022000)
  9:    466.43   0.000072    0.36  0.000048  ( 0.000678  0.006353  0.002719)
 10:    531.18   0.007538   38.09  0.004429  ( 0.005739 -0.045966  0.047778)
 11:    682.82   0.005200   26.28  0.002377  ( 0.037190  0.018809  0.025291)
 12:    705.60   0.002166   10.95  0.000958  (-0.021009 -0.019362 -0.011908)
 13:    737.74   0.001211    6.12  0.000512  ( 0.013087  0.006201  0.017392)
 14:    891.68   0.013341   67.42  0.004669  ( 0.016884 -0.009727 -0.065493)
 15:   1100.65   0.002981   15.06  0.000845  ( 0.012467 -0.017419  0.019654)
 16:   1140.11   0.012139   61.34  0.003323  ( 0.054302  0.004508  0.018803)
 17:   1229.21   0.028233  142.68  0.007168  ( 0.046819 -0.004484 -0.070396)
 18:   1299.91   0.006863   34.68  0.001647  (-0.016637  0.014105  0.034231)
 19:   1433.88   0.005910   29.87  0.001286  (-0.034317  0.010271  0.001747)
 20:   1559.53   0.000630    3.18  0.000126  ( 0.005949 -0.005109  0.008038)
 21:   1817.38   0.023626  119.40  0.004057  (-0.055313  0.028378  0.013856)
 22:   3142.03   0.001848    9.34  0.000184  ( 0.011514  0.006833 -0.002073)
 23:   3230.23   0.001609    8.13  0.000155  (-0.001968  0.004677  0.011388)

--------------------------
THERMOCHEMISTRY AT 298.15K
--------------------------

Temperature         ... 298.15 K
Pressure            ... 1.00 atm
Total Mass          ... 81.04 AMU

Throughout the following assumptions are being made:
  (1) The electronic state is orbitally nondegenerate
      but the spin degeneracy is treated
  (2) There are no thermally accessible electronically excited states
  (3) Hindered rotations indicated by low frequency modes are not
      treated as such but are treated as vibrations and this may
      cause some error
  (4) All equations used are the standard statistical mechanics
      equations for an ideal gas
  (5) All vibrations are strictly harmonic

freq.     137.42  E(vib)   ...       0.42
freq.     248.36  E(vib)   ...       0.31
freq.     466.43  E(vib)   ...       0.16
freq.     531.18  E(vib)   ...       0.13
freq.     682.82  E(vib)   ...       0.08
freq.     705.60  E(vib)   ...       0.07
freq.     737.74  E(vib)   ...       0.06
freq.     891.68  E(vib)   ...       0.03
freq.    1100.65  E(vib)   ...       0.02
freq.    1140.11  E(vib)   ...       0.01
freq.    1229.21  E(vib)   ...       0.01
freq.    1299.91  E(vib)   ...       0.01
freq.    1433.88  E(vib)   ...       0.00
freq.    1559.53  E(vib)   ...       0.00
freq.    1817.38  E(vib)   ...       0.00
freq.    3142.03  E(vib)   ...       0.00
freq.    3230.23  E(vib)   ...       0.00

------------
INNER ENERGY
------------

The inner energy is: U= E(el) + E(ZPE) + E(vib) + E(rot) + E(trans)
    E(el)   - is the total energy from the electronic structure calculation
              = E(kin-el) + E(nuc-el) + E(el-el) + E(nuc-nuc)
    E(ZPE)  - the the zero temperature vibrational energy from the frequency calculation
    E(vib)  - the the finite temperature correction to E(ZPE) due to population
              of excited vibrational states
    E(rot)  - is the rotational thermal energy
    E(trans)- is the translational thermal energy

Summary of contributions to the inner energy U:
Electronic energy                ...   -351.85972229 Eh
Zero point energy                ...      0.04637016 Eh      29.10 kcal/mol
Thermal vibrational correction   ...      0.00207470 Eh       1.30 kcal/mol
Thermal rotational correction    ...      0.00141627 Eh       0.89 kcal/mol
Thermal translational correction ...      0.00141627 Eh       0.89 kcal/mol
-----------------------------------------------------------------------
Total thermal energy                   -351.80844489 Eh

Summary of corrections to the electronic energy:
(perhaps to be used in another calculation)
Total thermal correction                  0.00490724 Eh       3.08 kcal/mol
Non-thermal (ZPE) correction              0.04637016 Eh      29.10 kcal/mol
-----------------------------------------------------------------------
Total correction                          0.05127740 Eh      32.18 kcal/mol

--------
ENTHALPY
--------

The enthalpy is H = U + kB*T
                kB is Boltzmann's constant
Total free energy                 ...   -351.80844489 Eh
Thermal Enthalpy correction       ...      0.00094421 Eh       0.59 kcal/mol
-----------------------------------------------------------------------
Total Enthalpy                    ...   -351.80750068 Eh

Note: Only C1 symmetry has been detected, increase convergence thresholds
      if your molecule has a higher symmetry. Symmetry factor of 1.0 is
      used for the rotational entropy correction.

Note: Rotational entropy computed according to Herzberg
Infrared and Raman Spectra, Chapter V,1, Van Nostrand Reinhold, 1945
Point Group:  C1, Symmetry Number:   1
Rotational constants in cm-1:     0.309281     0.131060     0.099422

Vibrational entropy computed according to the QRRHO of S. Grimme
Chem.Eur.J. 2012 18 9955

-------
ENTROPY
-------

The entropy contributions are T*S = T*(S(el)+S(vib)+S(rot)+S(trans))
     S(el)   - electronic entropy
     S(vib)  - vibrational entropy
     S(rot)  - rotational entropy
     S(trans)- translational entropy
The entropies will be listed as multiplied by the temperature to get
units of energy

Electronic entropy                ...      0.00065446 Eh      0.41 kcal/mol
Vibrational entropy               ...      0.00337285 Eh      2.12 kcal/mol
Rotational entropy                ...      0.01211391 Eh      7.60 kcal/mol
Translational entropy             ...      0.01857352 Eh     11.66 kcal/mol
-----------------------------------------------------------------------
Final entropy term                ...      0.03471474 Eh     21.78 kcal/mol

In case the symmetry of your molecule has not been determined correctly
or in case you have a reason to use a different symmetry number we print
out the resulting rotational entropy values for sn=1,12 :
 --------------------------------------------------------
|  sn= 1 | S(rot)=       0.01211391 Eh      7.60 kcal/mol|
|  sn= 2 | S(rot)=       0.01145945 Eh      7.19 kcal/mol|
|  sn= 3 | S(rot)=       0.01107662 Eh      6.95 kcal/mol|
|  sn= 4 | S(rot)=       0.01080500 Eh      6.78 kcal/mol|
|  sn= 5 | S(rot)=       0.01059431 Eh      6.65 kcal/mol|
|  sn= 6 | S(rot)=       0.01042216 Eh      6.54 kcal/mol|
|  sn= 7 | S(rot)=       0.01027662 Eh      6.45 kcal/mol|
|  sn= 8 | S(rot)=       0.01015054 Eh      6.37 kcal/mol|
|  sn= 9 | S(rot)=       0.01003933 Eh      6.30 kcal/mol|
|  sn=10 | S(rot)=       0.00993985 Eh      6.24 kcal/mol|
|  sn=11 | S(rot)=       0.00984986 Eh      6.18 kcal/mol|
|  sn=12 | S(rot)=       0.00976771 Eh      6.13 kcal/mol|
 --------------------------------------------------------

-------------------
GIBBS FREE ENERGY
-------------------

The Gibbs free energy is G = H - T*S

Total enthalpy                    ...   -351.80750068 Eh
Total entropy correction          ...     -0.03471474 Eh    -21.78 kcal/mol
-----------------------------------------------------------------------
Final Gibbs free energy         ...   -351.84221542 Eh

For completeness - the Gibbs free energy minus the electronic energy
G-E(el)                           ...      0.01750687 Eh     10.99 kcal/mol

                             ****ORCA TERMINATED NORMALLY****
TOTAL RUN TIME: 0 days 0 hours 46 minutes 44 seconds 101 msec
