                         Program Version 5.0.1 -  RELEASE  -
|  1> ! MP2 UHF 6-31G(d) OPTTS NumFreq NoFrozenCore VERYTIGHTSCF VERYTIGHTOPT
|  2>
|  3> %geom
|  4> MaxIter 200
|  5> end
|  6>
|  7> * XYZfile 0 2 input.xyz
|  8>
|  9>                          ****END OF INPUT****
 Total Charge           Charge          ....    0
 Multiplicity           Mult            ....    2
 Number of Electrons    NEL             ....   33
MP2 TOTAL ENERGY:     -252.834554584 Eh
FINAL SINGLE POINT ENERGY      -252.834554584426
MP2 TOTAL ENERGY:     -252.834437158 Eh
FINAL SINGLE POINT ENERGY      -252.834437158245
MP2 TOTAL ENERGY:     -252.834173301 Eh
FINAL SINGLE POINT ENERGY      -252.834173301021
MP2 TOTAL ENERGY:     -252.833811800 Eh
FINAL SINGLE POINT ENERGY      -252.833811799865
MP2 TOTAL ENERGY:     -252.833619250 Eh
FINAL SINGLE POINT ENERGY      -252.833619249728
MP2 TOTAL ENERGY:     -252.834126687 Eh
FINAL SINGLE POINT ENERGY      -252.834126687392
FINAL SINGLE POINT ENERGY      -252.833626670084
FINAL SINGLE POINT ENERGY      -252.833531783867
FINAL SINGLE POINT ENERGY      -252.834175855485
FINAL SINGLE POINT ENERGY      -252.834274972460
FINAL SINGLE POINT ENERGY      -252.834556013300
FINAL SINGLE POINT ENERGY      -252.834556024155
FINAL SINGLE POINT ENERGY      -252.834556035440
FINAL SINGLE POINT ENERGY      -252.834556047106
MP2 TOTAL ENERGY:     -252.834556057 Eh
FINAL SINGLE POINT ENERGY      -252.834556057164
MP2 TOTAL ENERGY:     -252.834556067 Eh
FINAL SINGLE POINT ENERGY      -252.834556066674
MP2 TOTAL ENERGY:     -252.834556096 Eh
FINAL SINGLE POINT ENERGY      -252.834556095923
MP2 TOTAL ENERGY:     -252.834556084 Eh
FINAL SINGLE POINT ENERGY      -252.834556083929
MP2 TOTAL ENERGY:     -252.834556111 Eh
FINAL SINGLE POINT ENERGY      -252.834556111260
                    ***********************HURRAY********************

CARTESIAN COORDINATES (ANGSTROEM)
---------------------------------
  C      1.009468    0.069369   -0.023674
  C      0.406632    0.556793    1.253636
  F      0.981716    1.719449    1.680861
  O     -0.924727    0.445998    1.476497
  H      0.731956    0.766550   -0.821907
  H      0.617870   -0.917918   -0.267123
  H      2.096815    0.034692    0.052144
  H     -0.126808   -0.184221    2.126983

 Multiplicity           Mult            ....    2
 Number of Electrons    NEL             ....   33
 Basis Dimension        Dim             ....   64

ORBITAL ENERGIES
----------------
                 SPIN UP ORBITALS
  NO   OCC          E(Eh)            E(eV)
   0   1.0000     -26.303713      -715.7604
   1   1.0000     -20.617923      -561.0422
   2   1.0000     -11.396671      -310.1192
   3   1.0000     -11.245665      -306.0101
   4   1.0000      -1.624128       -44.1948
   5   1.0000      -1.436731       -39.0954
   6   1.0000      -1.040274       -28.3073
   7   1.0000      -0.860565       -23.4172
   8   1.0000      -0.779271       -21.2050
   9   1.0000      -0.713646       -19.4193
  10   1.0000      -0.705438       -19.1959
  11   1.0000      -0.657791       -17.8994
  12   1.0000      -0.596028       -16.2187
  13   1.0000      -0.579774       -15.7764
  14   1.0000      -0.566410       -15.4128
  15   1.0000      -0.514951       -14.0125
  16   1.0000      -0.378010       -10.2862
  17   0.0000       0.195579         5.3220
  18   0.0000       0.253121         6.8878
  19   0.0000       0.291119         7.9218
  20   0.0000       0.305543         8.3142
  21   0.0000       0.382289        10.4026

                 SPIN DOWN ORBITALS
  NO   OCC          E(Eh)            E(eV)
   0   1.0000     -26.301160      -715.6909
   1   1.0000     -20.591077      -560.3117
   2   1.0000     -11.380560      -309.6808
   3   1.0000     -11.245795      -306.0136
   4   1.0000      -1.614376       -43.9294
   5   1.0000      -1.364156       -37.1206
   6   1.0000      -1.022453       -27.8224
   7   1.0000      -0.817260       -22.2388
   8   1.0000      -0.707061       -19.2401
   9   1.0000      -0.697266       -18.9736
  10   1.0000      -0.685226       -18.6459
  11   1.0000      -0.596087       -16.2204
  12   1.0000      -0.583364       -15.8741
  13   1.0000      -0.565976       -15.4010
  14   1.0000      -0.541270       -14.7287
  15   1.0000      -0.489922       -13.3315
  16   0.0000       0.131265         3.5719
  17   0.0000       0.222447         6.0531
  18   0.0000       0.261681         7.1207
  19   0.0000       0.292583         7.9616
  20   0.0000       0.318383         8.6636

MULLIKEN ATOMIC CHARGES AND SPIN DENSITIES
------------------------------------------
   0 C :   -0.556282   -0.017710
   1 C :    0.441833    0.521854
   2 F :   -0.324868    0.032921
   3 O :   -0.535887    0.411152
   4 H :    0.204958    0.036930
   5 H :    0.194235   -0.000839
   6 H :    0.197563   -0.001059
   7 H :    0.378448    0.016751
Sum of atomic charges       :   -0.0000000

LOEWDIN ATOMIC CHARGES AND SPIN DENSITIES
-----------------------------------------
   0 C :   -0.411462    0.013708
   1 C :    0.092789    0.430818
   2 F :   -0.141882    0.049625
   3 O :   -0.361760    0.447320
   4 H :    0.160781    0.028085
   5 H :    0.156154   -0.000019
   6 H :    0.155897    0.000147
   7 H :    0.349481    0.030317

  Mayer bond orders larger than 0.100000
B(  0-C ,  1-C ) :   0.9193 B(  0-C ,  4-H ) :   0.8923 B(  0-C ,  5-H ) :   0.9055
B(  0-C ,  6-H ) :   0.9033 B(  1-C ,  2-F ) :   0.8807 B(  1-C ,  3-O ) :   1.1066
B(  1-C ,  7-H ) :   0.4361 B(  3-O ,  7-H ) :   0.3921

MP2 TOTAL ENERGY:     -252.834556100 Eh
FINAL SINGLE POINT ENERGY      -252.834556099576

DIPOLE MOMENT
-------------
                                X             Y             Z
Electronic contribution:     -0.50758       3.33088       3.42694
Nuclear contribution   :      1.10041      -3.98742      -3.73122
                        -----------------------------------------
Total Dipole Moment    :      0.59283      -0.65654      -0.30428
                        -----------------------------------------
Magnitude (a.u.)       :      0.93546
Magnitude (Debye)      :      2.37775

VIBRATIONAL FREQUENCIES
-----------------------

Scaling factor for frequencies =  1.000000000 (already applied!)

   0:         0.00 cm**-1
   1:         0.00 cm**-1
   2:         0.00 cm**-1
   3:         0.00 cm**-1
   4:         0.00 cm**-1
   5:         0.00 cm**-1
   6:     -2264.03 cm**-1 ***imaginary mode***
   7:       208.01 cm**-1
   8:       389.01 cm**-1
   9:       481.55 cm**-1
  10:       546.32 cm**-1
  11:       717.56 cm**-1
  12:       885.20 cm**-1
  13:      1027.72 cm**-1
  14:      1123.85 cm**-1
  15:      1260.18 cm**-1
  16:      1349.33 cm**-1
  17:      1466.13 cm**-1
  18:      1539.59 cm**-1
  19:      1543.16 cm**-1
  20:      2579.28 cm**-1
  21:      3113.62 cm**-1
  22:      3209.33 cm**-1
  23:      3246.33 cm**-1

IR SPECTRUM
-----------

 Mode   freq       eps      Int      T**2         TX        TY        TZ
       cm**-1   L/(mol*cm) km/mol    a.u.
----------------------------------------------------------------------------
  7:    208.01   0.000059    0.30  0.000089  (-0.008317 -0.001750  0.004082)
  8:    389.01   0.000035    0.17  0.000028  ( 0.004403 -0.000684 -0.002810)
  9:    481.55   0.004742   23.96  0.003073  ( 0.026603 -0.017796 -0.045261)
 10:    546.32   0.000655    3.31  0.000374  (-0.000980 -0.018572  0.005320)
 11:    717.56   0.003788   19.14  0.001647  ( 0.004420  0.032791  0.023504)
 12:    885.20   0.005388   27.23  0.001899  ( 0.013889  0.036119  0.020045)
 13:   1027.72   0.008842   44.68  0.002685  ( 0.034850  0.038311  0.001573)
 14:   1123.85   0.003649   18.44  0.001013  (-0.015961 -0.008432  0.026218)
 15:   1260.18   0.032070  162.07  0.007942  (-0.039610 -0.073922 -0.030137)
 16:   1349.33   0.027088  136.89  0.006265  ( 0.069512  0.017902 -0.033352)
 17:   1466.13   0.006424   32.47  0.001367  (-0.014563  0.015401  0.030301)
 18:   1539.59   0.001424    7.19  0.000289  ( 0.007593 -0.013338  0.007281)
 19:   1543.16   0.000259    1.31  0.000052  (-0.002535 -0.005803 -0.003497)
 20:   2579.28   0.009225   46.62  0.001116  (-0.024727  0.015189 -0.016554)
 21:   3113.62   0.000621    3.14  0.000062  (-0.002423 -0.000910  0.007452)
 22:   3209.33   0.000837    4.23  0.000081  (-0.005972  0.006561 -0.001633)
 23:   3246.33   0.000805    4.07  0.000077  (-0.006972 -0.005141 -0.001526)

--------------------------
THERMOCHEMISTRY AT 298.15K
--------------------------

Temperature         ... 298.15 K
Pressure            ... 1.00 atm
Total Mass          ... 63.05 AMU

Throughout the following assumptions are being made:
  (1) The electronic state is orbitally nondegenerate
      but the spin degeneracy is treated
  (2) There are no thermally accessible electronically excited states
  (3) Hindered rotations indicated by low frequency modes are not
      treated as such but are treated as vibrations and this may
      cause some error
  (4) All equations used are the standard statistical mechanics
      equations for an ideal gas
  (5) All vibrations are strictly harmonic

freq.     208.01  E(vib)   ...       0.34
freq.     389.01  E(vib)   ...       0.20
freq.     481.55  E(vib)   ...       0.15
freq.     546.32  E(vib)   ...       0.12
freq.     717.56  E(vib)   ...       0.07
freq.     885.20  E(vib)   ...       0.04
freq.    1027.72  E(vib)   ...       0.02
freq.    1123.85  E(vib)   ...       0.01
freq.    1260.18  E(vib)   ...       0.01
freq.    1349.33  E(vib)   ...       0.01
freq.    1466.13  E(vib)   ...       0.00
freq.    1539.59  E(vib)   ...       0.00
freq.    1543.16  E(vib)   ...       0.00
freq.    2579.28  E(vib)   ...       0.00
freq.    3113.62  E(vib)   ...       0.00
freq.    3209.33  E(vib)   ...       0.00
freq.    3246.33  E(vib)   ...       0.00

------------
INNER ENERGY
------------

The inner energy is: U= E(el) + E(ZPE) + E(vib) + E(rot) + E(trans)
    E(el)   - is the total energy from the electronic structure calculation
              = E(kin-el) + E(nuc-el) + E(el-el) + E(nuc-nuc)
    E(ZPE)  - the the zero temperature vibrational energy from the frequency calculation
    E(vib)  - the the finite temperature correction to E(ZPE) due to population
              of excited vibrational states
    E(rot)  - is the rotational thermal energy
    E(trans)- is the translational thermal energy

Summary of contributions to the inner energy U:
Electronic energy                ...   -252.83455610 Eh
Zero point energy                ...      0.05623920 Eh      35.29 kcal/mol
Thermal vibrational correction   ...      0.00155369 Eh       0.97 kcal/mol
Thermal rotational correction    ...      0.00141627 Eh       0.89 kcal/mol
Thermal translational correction ...      0.00141627 Eh       0.89 kcal/mol
-----------------------------------------------------------------------
Total thermal energy                   -252.77393066 Eh

Summary of corrections to the electronic energy:
(perhaps to be used in another calculation)
Total thermal correction                  0.00438624 Eh       2.75 kcal/mol
Non-thermal (ZPE) correction              0.05623920 Eh      35.29 kcal/mol
-----------------------------------------------------------------------
Total correction                          0.06062544 Eh      38.04 kcal/mol

--------
ENTHALPY
--------

The enthalpy is H = U + kB*T
                kB is Boltzmann's constant
Total free energy                 ...   -252.77393066 Eh
Thermal Enthalpy correction       ...      0.00094421 Eh       0.59 kcal/mol
-----------------------------------------------------------------------
Total Enthalpy                    ...   -252.77298645 Eh

Note: Only C1 symmetry has been detected, increase convergence thresholds
      if your molecule has a higher symmetry. Symmetry factor of 1.0 is
      used for the rotational entropy correction.

Note: Rotational entropy computed according to Herzberg
Infrared and Raman Spectra, Chapter V,1, Van Nostrand Reinhold, 1945
Point Group:  C1, Symmetry Number:   1
Rotational constants in cm-1:     0.325416     0.304708     0.168208

Vibrational entropy computed according to the QRRHO of S. Grimme
Chem.Eur.J. 2012 18 9955

-------
ENTROPY
-------

The entropy contributions are T*S = T*(S(el)+S(vib)+S(rot)+S(trans))
     S(el)   - electronic entropy
     S(vib)  - vibrational entropy
     S(rot)  - rotational entropy
     S(trans)- translational entropy
The entropies will be listed as multiplied by the temperature to get
units of energy

Electronic entropy                ...      0.00065446 Eh      0.41 kcal/mol
Vibrational entropy               ...      0.00237225 Eh      1.49 kcal/mol
Rotational entropy                ...      0.01144336 Eh      7.18 kcal/mol
Translational entropy             ...      0.01821802 Eh     11.43 kcal/mol
-----------------------------------------------------------------------
Final entropy term                ...      0.03268809 Eh     20.51 kcal/mol

In case the symmetry of your molecule has not been determined correctly
or in case you have a reason to use a different symmetry number we print
out the resulting rotational entropy values for sn=1,12 :
 --------------------------------------------------------
|  sn= 1 | S(rot)=       0.01144336 Eh      7.18 kcal/mol|
|  sn= 2 | S(rot)=       0.01078891 Eh      6.77 kcal/mol|
|  sn= 3 | S(rot)=       0.01040607 Eh      6.53 kcal/mol|
|  sn= 4 | S(rot)=       0.01013445 Eh      6.36 kcal/mol|
|  sn= 5 | S(rot)=       0.00992376 Eh      6.23 kcal/mol|
|  sn= 6 | S(rot)=       0.00975162 Eh      6.12 kcal/mol|
|  sn= 7 | S(rot)=       0.00960607 Eh      6.03 kcal/mol|
|  sn= 8 | S(rot)=       0.00947999 Eh      5.95 kcal/mol|
|  sn= 9 | S(rot)=       0.00936879 Eh      5.88 kcal/mol|
|  sn=10 | S(rot)=       0.00926931 Eh      5.82 kcal/mol|
|  sn=11 | S(rot)=       0.00917932 Eh      5.76 kcal/mol|
|  sn=12 | S(rot)=       0.00909716 Eh      5.71 kcal/mol|
 --------------------------------------------------------

-------------------
GIBBS FREE ENERGY
-------------------

The Gibbs free energy is G = H - T*S

Total enthalpy                    ...   -252.77298645 Eh
Total entropy correction          ...     -0.03268809 Eh    -20.51 kcal/mol
-----------------------------------------------------------------------
Final Gibbs free energy         ...   -252.80567454 Eh

For completeness - the Gibbs free energy minus the electronic energy
G-E(el)                           ...      0.02888156 Eh     18.12 kcal/mol

                             ****ORCA TERMINATED NORMALLY****
TOTAL RUN TIME: 0 days 0 hours 39 minutes 47 seconds 325 msec
