                         Program Version 5.0.1 -  RELEASE  -
|  1> ! MP2 UHF 6-31G(d) OPTTS NumFreq NoFrozenCore VERYTIGHTSCF VERYTIGHTOPT
|  2> %geom
|  3> MaxIter 200
|  4> end
|  5>
|  6> * XYZfile 0 2 input.xyz
|  7>
|  8>                          ****END OF INPUT****
 Total Charge           Charge          ....    0
 Multiplicity           Mult            ....    2
 Number of Electrons    NEL             ....   41
MP2 TOTAL ENERGY:     -351.897512620 Eh
FINAL SINGLE POINT ENERGY      -351.897512619930
MP2 TOTAL ENERGY:     -351.897282802 Eh
FINAL SINGLE POINT ENERGY      -351.897282802383
MP2 TOTAL ENERGY:     -351.896856439 Eh
FINAL SINGLE POINT ENERGY      -351.896856439291
MP2 TOTAL ENERGY:     -351.895982041 Eh
FINAL SINGLE POINT ENERGY      -351.895982041444
MP2 TOTAL ENERGY:     -351.894866546 Eh
FINAL SINGLE POINT ENERGY      -351.894866546482
MP2 TOTAL ENERGY:     -351.897061642 Eh
FINAL SINGLE POINT ENERGY      -351.897061641734
FINAL SINGLE POINT ENERGY      -351.896053082654
FINAL SINGLE POINT ENERGY      -351.896733898514
FINAL SINGLE POINT ENERGY      -351.897085655499
FINAL SINGLE POINT ENERGY      -351.897412444023
FINAL SINGLE POINT ENERGY      -351.897555520713
FINAL SINGLE POINT ENERGY      -351.897555633495
FINAL SINGLE POINT ENERGY      -351.897555727050
FINAL SINGLE POINT ENERGY      -351.897555804272
MP2 TOTAL ENERGY:     -351.897555868 Eh
FINAL SINGLE POINT ENERGY      -351.897555868166
MP2 TOTAL ENERGY:     -351.897555918 Eh
FINAL SINGLE POINT ENERGY      -351.897555917886
MP2 TOTAL ENERGY:     -351.897555962 Eh
FINAL SINGLE POINT ENERGY      -351.897555961879
MP2 TOTAL ENERGY:     -351.897555998 Eh
FINAL SINGLE POINT ENERGY      -351.897555998309
MP2 TOTAL ENERGY:     -351.897556028 Eh
FINAL SINGLE POINT ENERGY      -351.897556028457
                    ***********************HURRAY********************

CARTESIAN COORDINATES (ANGSTROEM)
---------------------------------
  C      1.150977   -0.108632   -0.092493
  H      1.190042    0.115773    0.975245
  C      0.559819    1.008050   -0.816103
  F      0.694631    2.278459   -0.364755
  O     -0.207930    0.857210   -1.917919
  H      0.567489   -1.014008   -0.270305
  F      2.478247   -0.382846   -0.506985
  H     -0.111591    1.652290   -2.475239

 Multiplicity           Mult            ....    2
 Number of Electrons    NEL             ....   41
 Basis Dimension        Dim             ....   76

ORBITAL ENERGIES
----------------
                 SPIN UP ORBITALS
  NO   OCC          E(Eh)            E(eV)
   0   1.0000     -26.322643      -716.2755
   1   1.0000     -26.269721      -714.8354
   2   1.0000     -20.619468      -561.0842
   3   1.0000     -11.372307      -309.4562
   4   1.0000     -11.329133      -308.2814
   5   1.0000      -1.641069       -44.6558
   6   1.0000      -1.575625       -42.8749
   7   1.0000      -1.426567       -38.8189
   8   1.0000      -1.052750       -28.6468
   9   1.0000      -0.867167       -23.5968
  10   1.0000      -0.783483       -21.3197
  11   1.0000      -0.748648       -20.3718
  12   1.0000      -0.737950       -20.0806
  13   1.0000      -0.685965       -18.6661
  14   1.0000      -0.681729       -18.5508
  15   1.0000      -0.658138       -17.9089
  16   1.0000      -0.622757       -16.9461
  17   1.0000      -0.580865       -15.8061
  18   1.0000      -0.552430       -15.0324
  19   1.0000      -0.539891       -14.6912
  20   1.0000      -0.343100        -9.3362
  21   0.0000       0.208575         5.6756
  22   0.0000       0.265992         7.2380
  23   0.0000       0.282535         7.6882
  24   0.0000       0.321959         8.7609
  25   0.0000       0.348312         9.4781

                 SPIN DOWN ORBITALS
  NO   OCC          E(Eh)            E(eV)
   0   1.0000     -26.319267      -716.1837
   1   1.0000     -26.265209      -714.7127
   2   1.0000     -20.615468      -560.9754
   3   1.0000     -11.344316      -308.6945
   4   1.0000     -11.333062      -308.3883
   5   1.0000      -1.629298       -44.3355
   6   1.0000      -1.562610       -42.5208
   7   1.0000      -1.412374       -38.4327
   8   1.0000      -1.022695       -27.8290
   9   1.0000      -0.842451       -22.9243
  10   1.0000      -0.775787       -21.1102
  11   1.0000      -0.731836       -19.9143
  12   1.0000      -0.692342       -18.8396
  13   1.0000      -0.680588       -18.5197
  14   1.0000      -0.658185       -17.9101
  15   1.0000      -0.647015       -17.6062
  16   1.0000      -0.597671       -16.2634
  17   1.0000      -0.558529       -15.1983
  18   1.0000      -0.538160       -14.6441
  19   1.0000      -0.529768       -14.4157
  20   0.0000       0.150397         4.0925
  21   0.0000       0.213546         5.8109
  22   0.0000       0.271022         7.3749
  23   0.0000       0.286648         7.8001
  24   0.0000       0.376296        10.2395

MULLIKEN ATOMIC CHARGES AND SPIN DENSITIES
------------------------------------------
   0 C :    0.013900   -0.025880
   1 H :    0.177096    0.004022
   2 C :    0.524308    0.854364
   3 F :   -0.333036    0.040633
   4 O :   -0.639863    0.070735
   5 H :    0.181349    0.005411
   6 F :   -0.383475    0.045416
   7 H :    0.459721    0.005298
Sum of atomic charges       :   -0.0000000

LOEWDIN ATOMIC CHARGES AND SPIN DENSITIES
-----------------------------------------
   0 C :   -0.073257    0.025702
   1 H :    0.142090    0.005173
   2 C :    0.109615    0.718392
   3 F :   -0.126384    0.072063
   4 O :   -0.329807    0.112116
   5 H :    0.145140    0.006028
   6 F :   -0.220980    0.054612
   7 H :    0.353584    0.005915

  Mayer bond orders larger than 0.100000
B(  0-C ,  1-H ) :   0.8955 B(  0-C ,  2-C ) :   1.0383 B(  0-C ,  5-H ) :   0.8908
B(  0-C ,  6-F ) :   0.7872 B(  2-C ,  3-F ) :   0.9038 B(  2-C ,  4-O ) :   1.0288
B(  4-O ,  7-H ) :   0.7068

MP2 TOTAL ENERGY:     -351.897556053 Eh
FINAL SINGLE POINT ENERGY      -351.897556053423

DIPOLE MOMENT
-------------
                                X             Y             Z
Electronic contribution:      1.79432       2.05956       0.03422
Nuclear contribution   :     -2.35225      -1.77456      -0.15942
                        -----------------------------------------
Total Dipole Moment    :     -0.55794       0.28499      -0.12519
                        -----------------------------------------
Magnitude (a.u.)       :      0.63890
Magnitude (Debye)      :      1.62394

VIBRATIONAL FREQUENCIES
-----------------------

Scaling factor for frequencies =  1.000000000 (already applied!)

   0:         0.00 cm**-1
   1:         0.00 cm**-1
   2:         0.00 cm**-1
   3:         0.00 cm**-1
   4:         0.00 cm**-1
   5:         0.00 cm**-1
   6:      -450.05 cm**-1 ***imaginary mode***
   7:        92.51 cm**-1
   8:       193.80 cm**-1
   9:       345.26 cm**-1
  10:       366.72 cm**-1
  11:       523.03 cm**-1
  12:       839.51 cm**-1
  13:       990.33 cm**-1
  14:      1007.91 cm**-1
  15:      1191.45 cm**-1
  16:      1278.92 cm**-1
  17:      1409.83 cm**-1
  18:      1425.68 cm**-1
  19:      1525.54 cm**-1
  20:      1580.04 cm**-1
  21:      3142.86 cm**-1
  22:      3214.79 cm**-1
  23:      3723.38 cm**-1

IR SPECTRUM
-----------

 Mode   freq       eps      Int      T**2         TX        TY        TZ
       cm**-1   L/(mol*cm) km/mol    a.u.
----------------------------------------------------------------------------
  7:     92.51   0.001070    5.41  0.003610  ( 0.022097  0.038857  0.040151)
  8:    193.80   0.028945  146.28  0.046607  ( 0.165881 -0.102918 -0.092186)
  9:    345.26   0.003029   15.31  0.002738  (-0.047345  0.003801  0.021953)
 10:    366.72   0.001418    7.17  0.001206  ( 0.010667 -0.020959 -0.025562)
 11:    523.03   0.009307   47.03  0.005553  ( 0.036454 -0.036929  0.053480)
 12:    839.51   0.011140   56.29  0.004141  (-0.015124  0.055417 -0.029000)
 13:    990.33   0.032626  164.88  0.010281  ( 0.093275 -0.039195 -0.006655)
 14:   1007.91   0.005979   30.22  0.001851  (-0.021136 -0.020143 -0.031604)
 15:   1191.45   0.007920   40.03  0.002074  (-0.027228  0.011704 -0.034585)
 16:   1278.92   0.010757   54.36  0.002625  ( 0.025061  0.022744  0.038465)
 17:   1409.83   0.008951   45.24  0.001981  ( 0.004320 -0.039781 -0.019497)
 18:   1425.68   0.037721  190.63  0.008257  ( 0.047497  0.037292  0.067896)
 19:   1525.54   0.000034    0.17  0.000007  ( 0.000924 -0.002479  0.000010)
 20:   1580.04   0.002628   13.28  0.000519  ( 0.000862  0.018080 -0.013837)
 21:   3142.86   0.003411   17.24  0.000339  ( 0.008262  0.008825 -0.013878)
 22:   3214.79   0.003012   15.22  0.000292  ( 0.005784  0.010600  0.012105)
 23:   3723.38   0.016804   84.92  0.001408  (-0.002266  0.025559 -0.027387)

--------------------------
THERMOCHEMISTRY AT 298.15K
--------------------------

Temperature         ... 298.15 K
Pressure            ... 1.00 atm
Total Mass          ... 81.04 AMU

Throughout the following assumptions are being made:
  (1) The electronic state is orbitally nondegenerate
      but the spin degeneracy is treated
  (2) There are no thermally accessible electronically excited states
  (3) Hindered rotations indicated by low frequency modes are not
      treated as such but are treated as vibrations and this may
      cause some error
  (4) All equations used are the standard statistical mechanics
      equations for an ideal gas
  (5) All vibrations are strictly harmonic

freq.      92.51  E(vib)   ...       0.47
freq.     193.80  E(vib)   ...       0.36
freq.     345.26  E(vib)   ...       0.23
freq.     366.72  E(vib)   ...       0.22
freq.     523.03  E(vib)   ...       0.13
freq.     839.51  E(vib)   ...       0.04
freq.     990.33  E(vib)   ...       0.02
freq.    1007.91  E(vib)   ...       0.02
freq.    1191.45  E(vib)   ...       0.01
freq.    1278.92  E(vib)   ...       0.01
freq.    1409.83  E(vib)   ...       0.00
freq.    1425.68  E(vib)   ...       0.00
freq.    1525.54  E(vib)   ...       0.00
freq.    1580.04  E(vib)   ...       0.00
freq.    3142.86  E(vib)   ...       0.00
freq.    3214.79  E(vib)   ...       0.00
freq.    3723.38  E(vib)   ...       0.00

------------
INNER ENERGY
------------

The inner energy is: U= E(el) + E(ZPE) + E(vib) + E(rot) + E(trans)
    E(el)   - is the total energy from the electronic structure calculation
              = E(kin-el) + E(nuc-el) + E(el-el) + E(nuc-nuc)
    E(ZPE)  - the the zero temperature vibrational energy from the frequency calculation
    E(vib)  - the the finite temperature correction to E(ZPE) due to population
              of excited vibrational states
    E(rot)  - is the rotational thermal energy
    E(trans)- is the translational thermal energy

Summary of contributions to the inner energy U:
Electronic energy                ...   -351.89755605 Eh
Zero point energy                ...      0.05205972 Eh      32.67 kcal/mol
Thermal vibrational correction   ...      0.00243006 Eh       1.52 kcal/mol
Thermal rotational correction    ...      0.00141627 Eh       0.89 kcal/mol
Thermal translational correction ...      0.00141627 Eh       0.89 kcal/mol
-----------------------------------------------------------------------
Total thermal energy                   -351.84023373 Eh

Summary of corrections to the electronic energy:
(perhaps to be used in another calculation)
Total thermal correction                  0.00526260 Eh       3.30 kcal/mol
Non-thermal (ZPE) correction              0.05205972 Eh      32.67 kcal/mol
-----------------------------------------------------------------------
Total correction                          0.05732232 Eh      35.97 kcal/mol

--------
ENTHALPY
--------

The enthalpy is H = U + kB*T
                kB is Boltzmann's constant
Total free energy                 ...   -351.84023373 Eh
Thermal Enthalpy correction       ...      0.00094421 Eh       0.59 kcal/mol
-----------------------------------------------------------------------
Total Enthalpy                    ...   -351.83928952 Eh

Note: Only C1 symmetry has been detected, increase convergence thresholds
      if your molecule has a higher symmetry. Symmetry factor of 1.0 is
      used for the rotational entropy correction.

Note: Rotational entropy computed according to Herzberg
Infrared and Raman Spectra, Chapter V,1, Van Nostrand Reinhold, 1945
Point Group:  C1, Symmetry Number:   1
Rotational constants in cm-1:     0.278581     0.118348     0.094307

Vibrational entropy computed according to the QRRHO of S. Grimme
Chem.Eur.J. 2012 18 9955

-------
ENTROPY
-------

The entropy contributions are T*S = T*(S(el)+S(vib)+S(rot)+S(trans))
     S(el)   - electronic entropy
     S(vib)  - vibrational entropy
     S(rot)  - rotational entropy
     S(trans)- translational entropy
The entropies will be listed as multiplied by the temperature to get
units of energy

Electronic entropy                ...      0.00065446 Eh      0.41 kcal/mol
Vibrational entropy               ...      0.00417656 Eh      2.62 kcal/mol
Rotational entropy                ...      0.01223637 Eh      7.68 kcal/mol
Translational entropy             ...      0.01857352 Eh     11.66 kcal/mol
-----------------------------------------------------------------------
Final entropy term                ...      0.03564090 Eh     22.36 kcal/mol

In case the symmetry of your molecule has not been determined correctly
or in case you have a reason to use a different symmetry number we print
out the resulting rotational entropy values for sn=1,12 :
 --------------------------------------------------------
|  sn= 1 | S(rot)=       0.01223637 Eh      7.68 kcal/mol|
|  sn= 2 | S(rot)=       0.01158191 Eh      7.27 kcal/mol|
|  sn= 3 | S(rot)=       0.01119908 Eh      7.03 kcal/mol|
|  sn= 4 | S(rot)=       0.01092745 Eh      6.86 kcal/mol|
|  sn= 5 | S(rot)=       0.01071677 Eh      6.72 kcal/mol|
|  sn= 6 | S(rot)=       0.01054462 Eh      6.62 kcal/mol|
|  sn= 7 | S(rot)=       0.01039908 Eh      6.53 kcal/mol|
|  sn= 8 | S(rot)=       0.01027300 Eh      6.45 kcal/mol|
|  sn= 9 | S(rot)=       0.01016179 Eh      6.38 kcal/mol|
|  sn=10 | S(rot)=       0.01006231 Eh      6.31 kcal/mol|
|  sn=11 | S(rot)=       0.00997232 Eh      6.26 kcal/mol|
|  sn=12 | S(rot)=       0.00989017 Eh      6.21 kcal/mol|
 --------------------------------------------------------

-------------------
GIBBS FREE ENERGY
-------------------

The Gibbs free energy is G = H - T*S

Total enthalpy                    ...   -351.83928952 Eh
Total entropy correction          ...     -0.03564090 Eh    -22.36 kcal/mol
-----------------------------------------------------------------------
Final Gibbs free energy         ...   -351.87493042 Eh

For completeness - the Gibbs free energy minus the electronic energy
G-E(el)                           ...      0.02262563 Eh     14.20 kcal/mol

                             ****ORCA TERMINATED NORMALLY****
TOTAL RUN TIME: 0 days 0 hours 31 minutes 38 seconds 204 msec
