                         Program Version 5.0.1 -  RELEASE  -
|  1> ! MP2 UHF 6-31G(d) OPTTS NumFreq NoFrozenCore VERYTIGHTSCF VERYTIGHTOPT
|  2> %geom
|  3> MaxIter 200
|  4> end
|  5>
|  6> * XYZfile 0 2 input.xyz
|  7>
|  8>                          ****END OF INPUT****
 Total Charge           Charge          ....    0
 Multiplicity           Mult            ....    2
 Number of Electrons    NEL             ....   41
MP2 TOTAL ENERGY:     -351.712072162 Eh
FINAL SINGLE POINT ENERGY      -351.712072161690
MP2 TOTAL ENERGY:     -351.719466340 Eh
FINAL SINGLE POINT ENERGY      -351.719466339608
MP2 TOTAL ENERGY:     -351.730685387 Eh
FINAL SINGLE POINT ENERGY      -351.730685386811
MP2 TOTAL ENERGY:     -351.741711805 Eh
FINAL SINGLE POINT ENERGY      -351.741711804640
MP2 TOTAL ENERGY:     -351.756451527 Eh
FINAL SINGLE POINT ENERGY      -351.756451526569
MP2 TOTAL ENERGY:     -351.774793057 Eh
FINAL SINGLE POINT ENERGY      -351.774793057232
FINAL SINGLE POINT ENERGY      -351.786812153133
FINAL SINGLE POINT ENERGY      -351.796872516312
FINAL SINGLE POINT ENERGY      -351.805221895379
FINAL SINGLE POINT ENERGY      -351.812076509478
FINAL SINGLE POINT ENERGY      -351.833056344515
FINAL SINGLE POINT ENERGY      -351.833034230364
FINAL SINGLE POINT ENERGY      -351.833031307810
FINAL SINGLE POINT ENERGY      -351.833032258794
MP2 TOTAL ENERGY:     -351.833032514 Eh
FINAL SINGLE POINT ENERGY      -351.833032513531
MP2 TOTAL ENERGY:     -351.833032581 Eh
FINAL SINGLE POINT ENERGY      -351.833032581078
MP2 TOTAL ENERGY:     -351.833032627 Eh
FINAL SINGLE POINT ENERGY      -351.833032627028
MP2 TOTAL ENERGY:     -351.833032672 Eh
FINAL SINGLE POINT ENERGY      -351.833032672453
MP2 TOTAL ENERGY:     -351.833032673 Eh
FINAL SINGLE POINT ENERGY      -351.833032672734
                    ***********************HURRAY********************

CARTESIAN COORDINATES (ANGSTROEM)
---------------------------------
  C      0.698227   -0.076489    0.371134
  H      1.860996    0.532688    0.186522
  C      0.301651    0.858338   -0.728469
  F     -0.475078    1.886611   -0.244599
  O      1.650240    1.201797   -0.882339
  H      0.868390   -1.125551    0.131647
  F      0.131419    0.117868    1.583453
  H     -0.154582    0.484940   -1.645930

 Multiplicity           Mult            ....    2
 Number of Electrons    NEL             ....   41
 Basis Dimension        Dim             ....   76

ORBITAL ENERGIES
----------------
                 SPIN UP ORBITALS
  NO   OCC          E(Eh)            E(eV)
   0   1.0000     -26.318237      -716.1556
   1   1.0000     -26.301689      -715.7053
   2   1.0000     -20.648237      -561.8671
   3   1.0000     -11.393802      -310.0411
   4   1.0000     -11.361346      -309.1579
   5   1.0000      -1.637786       -44.5664
   6   1.0000      -1.614079       -43.9213
   7   1.0000      -1.448306       -39.4104
   8   1.0000      -1.039147       -28.2766
   9   1.0000      -0.901488       -24.5307
  10   1.0000      -0.799842       -21.7648
  11   1.0000      -0.762043       -20.7363
  12   1.0000      -0.730687       -19.8830
  13   1.0000      -0.713802       -19.4235
  14   1.0000      -0.707101       -19.2412
  15   1.0000      -0.659471       -17.9451
  16   1.0000      -0.637404       -17.3446
  17   1.0000      -0.587651       -15.9908
  18   1.0000      -0.548900       -14.9363
  19   1.0000      -0.527384       -14.3509
  20   1.0000      -0.441376       -12.0104
  21   0.0000       0.235412         6.4059
  22   0.0000       0.247136         6.7249
  23   0.0000       0.276516         7.5244
  24   0.0000       0.296487         8.0678
  25   0.0000       0.338526         9.2118

                 SPIN DOWN ORBITALS
  NO   OCC          E(Eh)            E(eV)
   0   1.0000     -26.314965      -716.0666
   1   1.0000     -26.302022      -715.7144
   2   1.0000     -20.613947      -560.9340
   3   1.0000     -11.396438      -310.1128
   4   1.0000     -11.344371      -308.6960
   5   1.0000      -1.629456       -44.3397
   6   1.0000      -1.611763       -43.8583
   7   1.0000      -1.351840       -36.7854
   8   1.0000      -0.992254       -27.0006
   9   1.0000      -0.879582       -23.9346
  10   1.0000      -0.771798       -21.0017
  11   1.0000      -0.743013       -20.2184
  12   1.0000      -0.711624       -19.3643
  13   1.0000      -0.691808       -18.8251
  14   1.0000      -0.687997       -18.7213
  15   1.0000      -0.640533       -17.4298
  16   1.0000      -0.594459       -16.1761
  17   1.0000      -0.559232       -15.2175
  18   1.0000      -0.516133       -14.0447
  19   1.0000      -0.473666       -12.8891
  20   0.0000       0.088121         2.3979
  21   0.0000       0.244586         6.6555
  22   0.0000       0.253814         6.9066
  23   0.0000       0.286303         7.7907
  24   0.0000       0.318784         8.6746

MULLIKEN ATOMIC CHARGES AND SPIN DENSITIES
------------------------------------------
   0 C :   -0.025865    0.442453
   1 H :    0.334680   -0.009050
   2 C :    0.517465   -0.029641
   3 F :   -0.360260   -0.002790
   4 O :   -0.547917    0.542578
   5 H :    0.210121    0.013667
   6 F :   -0.304525    0.047417
   7 H :    0.176300   -0.004634
Sum of atomic charges       :   -0.0000000

LOEWDIN ATOMIC CHARGES AND SPIN DENSITIES
-----------------------------------------
   0 C :   -0.047054    0.384798
   1 H :    0.279153    0.003818
   2 C :    0.087970   -0.006962
   3 F :   -0.160973   -0.003183
   4 O :   -0.321540    0.551364
   5 H :    0.153152    0.011502
   6 F :   -0.118922    0.061437
   7 H :    0.128214   -0.002774

  Mayer bond orders larger than 0.100000
B(  0-C ,  1-H ) :   0.4829 B(  0-C ,  2-C ) :   0.8687 B(  0-C ,  4-O ) :   0.2341
B(  0-C ,  5-H ) :   0.8698 B(  0-C ,  6-F ) :   0.8870 B(  1-H ,  4-O ) :   0.3792
B(  2-C ,  3-F ) :   0.8500 B(  2-C ,  4-O ) :   0.8932 B(  2-C ,  7-H ) :   0.8910

MP2 TOTAL ENERGY:     -351.833032681 Eh
FINAL SINGLE POINT ENERGY      -351.833032680703

DIPOLE MOMENT
-------------
                                X             Y             Z
Electronic contribution:     -2.33186       1.69832       2.32002
Nuclear contribution   :      2.34310      -2.74287      -2.56774
                        -----------------------------------------
Total Dipole Moment    :      0.01124      -1.04455      -0.24772
                        -----------------------------------------
Magnitude (a.u.)       :      1.07358
Magnitude (Debye)      :      2.72883

VIBRATIONAL FREQUENCIES
-----------------------

Scaling factor for frequencies =  1.000000000 (already applied!)

   0:         0.00 cm**-1
   1:         0.00 cm**-1
   2:         0.00 cm**-1
   3:         0.00 cm**-1
   4:         0.00 cm**-1
   5:         0.00 cm**-1
   6:     -2546.19 cm**-1 ***imaginary mode***
   7:       205.89 cm**-1
   8:       247.15 cm**-1
   9:       510.79 cm**-1
  10:       610.39 cm**-1
  11:       711.73 cm**-1
  12:       907.18 cm**-1
  13:      1033.94 cm**-1
  14:      1076.90 cm**-1
  15:      1147.75 cm**-1
  16:      1216.13 cm**-1
  17:      1252.55 cm**-1
  18:      1329.78 cm**-1
  19:      1419.02 cm**-1
  20:      1455.07 cm**-1
  21:      2107.84 cm**-1
  22:      3196.92 cm**-1
  23:      3225.24 cm**-1

IR SPECTRUM
-----------

 Mode   freq       eps      Int      T**2         TX        TY        TZ
       cm**-1   L/(mol*cm) km/mol    a.u.
----------------------------------------------------------------------------
  7:    205.89   0.001595    8.06  0.002417  ( 0.025116  0.032007  0.027599)
  8:    247.15   0.000159    0.81  0.000201  (-0.011723  0.004979  0.006252)
  9:    510.79   0.001680    8.49  0.001027  (-0.007820 -0.031071  0.000356)
 10:    610.39   0.002092   10.57  0.001069  ( 0.025074 -0.008753  0.019081)
 11:    711.73   0.002000   10.11  0.000877  ( 0.001337 -0.023851  0.017503)
 12:    907.18   0.008344   42.17  0.002870  (-0.037094  0.038398  0.004480)
 13:   1033.94   0.014602   73.79  0.004407  ( 0.045447  0.017169 -0.045245)
 14:   1076.90   0.014881   75.20  0.004312  ( 0.029962 -0.001952  0.058400)
 15:   1147.75   0.014380   72.67  0.003910  (-0.028752  0.053758 -0.013899)
 16:   1216.13   0.008629   43.61  0.002214  (-0.027675 -0.004069  0.037839)
 17:   1252.55   0.015406   77.86  0.003838  ( 0.041484 -0.035796 -0.028913)
 18:   1329.78   0.003735   18.88  0.000877  (-0.014089  0.025105  0.006913)
 19:   1419.02   0.005540   28.00  0.001218  ( 0.005266  0.021288 -0.027156)
 20:   1455.07   0.011075   55.97  0.002375  ( 0.042224 -0.011816 -0.021280)
 21:   2107.84   0.003155   15.94  0.000467  (-0.012105  0.005539 -0.017025)
 22:   3196.92   0.005745   29.03  0.000561  (-0.010882 -0.006170 -0.020108)
 23:   3225.24   0.001989   10.05  0.000192  ( 0.003117 -0.007792 -0.011047)

--------------------------
THERMOCHEMISTRY AT 298.15K
--------------------------

Temperature         ... 298.15 K
Pressure            ... 1.00 atm
Total Mass          ... 81.04 AMU

Throughout the following assumptions are being made:
  (1) The electronic state is orbitally nondegenerate
      but the spin degeneracy is treated
  (2) There are no thermally accessible electronically excited states
  (3) Hindered rotations indicated by low frequency modes are not
      treated as such but are treated as vibrations and this may
      cause some error
  (4) All equations used are the standard statistical mechanics
      equations for an ideal gas
  (5) All vibrations are strictly harmonic

freq.     205.89  E(vib)   ...       0.35
freq.     247.15  E(vib)   ...       0.31
freq.     510.79  E(vib)   ...       0.14
freq.     610.39  E(vib)   ...       0.10
freq.     711.73  E(vib)   ...       0.07
freq.     907.18  E(vib)   ...       0.03
freq.    1033.94  E(vib)   ...       0.02
freq.    1076.90  E(vib)   ...       0.02
freq.    1147.75  E(vib)   ...       0.01
freq.    1216.13  E(vib)   ...       0.01
freq.    1252.55  E(vib)   ...       0.01
freq.    1329.78  E(vib)   ...       0.01
freq.    1419.02  E(vib)   ...       0.00
freq.    1455.07  E(vib)   ...       0.00
freq.    2107.84  E(vib)   ...       0.00
freq.    3196.92  E(vib)   ...       0.00
freq.    3225.24  E(vib)   ...       0.00

------------
INNER ENERGY
------------

The inner energy is: U= E(el) + E(ZPE) + E(vib) + E(rot) + E(trans)
    E(el)   - is the total energy from the electronic structure calculation
              = E(kin-el) + E(nuc-el) + E(el-el) + E(nuc-nuc)
    E(ZPE)  - the the zero temperature vibrational energy from the frequency calculation
    E(vib)  - the the finite temperature correction to E(ZPE) due to population
              of excited vibrational states
    E(rot)  - is the rotational thermal energy
    E(trans)- is the translational thermal energy

Summary of contributions to the inner energy U:
Electronic energy                ...   -351.83303268 Eh
Zero point energy                ...      0.04933204 Eh      30.96 kcal/mol
Thermal vibrational correction   ...      0.00170590 Eh       1.07 kcal/mol
Thermal rotational correction    ...      0.00141627 Eh       0.89 kcal/mol
Thermal translational correction ...      0.00141627 Eh       0.89 kcal/mol
-----------------------------------------------------------------------
Total thermal energy                   -351.77916220 Eh

Summary of corrections to the electronic energy:
(perhaps to be used in another calculation)
Total thermal correction                  0.00453844 Eh       2.85 kcal/mol
Non-thermal (ZPE) correction              0.04933204 Eh      30.96 kcal/mol
-----------------------------------------------------------------------
Total correction                          0.05387048 Eh      33.80 kcal/mol

--------
ENTHALPY
--------

The enthalpy is H = U + kB*T
                kB is Boltzmann's constant
Total free energy                 ...   -351.77916220 Eh
Thermal Enthalpy correction       ...      0.00094421 Eh       0.59 kcal/mol
-----------------------------------------------------------------------
Total Enthalpy                    ...   -351.77821799 Eh

Note: Only C1 symmetry has been detected, increase convergence thresholds
      if your molecule has a higher symmetry. Symmetry factor of 1.0 is
      used for the rotational entropy correction.

Note: Rotational entropy computed according to Herzberg
Infrared and Raman Spectra, Chapter V,1, Van Nostrand Reinhold, 1945
Point Group:  C1, Symmetry Number:   1
Rotational constants in cm-1:     0.259774     0.154974     0.110126

Vibrational entropy computed according to the QRRHO of S. Grimme
Chem.Eur.J. 2012 18 9955

-------
ENTROPY
-------

The entropy contributions are T*S = T*(S(el)+S(vib)+S(rot)+S(trans))
     S(el)   - electronic entropy
     S(vib)  - vibrational entropy
     S(rot)  - rotational entropy
     S(trans)- translational entropy
The entropies will be listed as multiplied by the temperature to get
units of energy

Electronic entropy                ...      0.00065446 Eh      0.41 kcal/mol
Vibrational entropy               ...      0.00269024 Eh      1.69 kcal/mol
Rotational entropy                ...      0.01206887 Eh      7.57 kcal/mol
Translational entropy             ...      0.01857352 Eh     11.66 kcal/mol
-----------------------------------------------------------------------
Final entropy term                ...      0.03398708 Eh     21.33 kcal/mol

In case the symmetry of your molecule has not been determined correctly
or in case you have a reason to use a different symmetry number we print
out the resulting rotational entropy values for sn=1,12 :
 --------------------------------------------------------
|  sn= 1 | S(rot)=       0.01206887 Eh      7.57 kcal/mol|
|  sn= 2 | S(rot)=       0.01141441 Eh      7.16 kcal/mol|
|  sn= 3 | S(rot)=       0.01103158 Eh      6.92 kcal/mol|
|  sn= 4 | S(rot)=       0.01075995 Eh      6.75 kcal/mol|
|  sn= 5 | S(rot)=       0.01054926 Eh      6.62 kcal/mol|
|  sn= 6 | S(rot)=       0.01037712 Eh      6.51 kcal/mol|
|  sn= 7 | S(rot)=       0.01023157 Eh      6.42 kcal/mol|
|  sn= 8 | S(rot)=       0.01010550 Eh      6.34 kcal/mol|
|  sn= 9 | S(rot)=       0.00999429 Eh      6.27 kcal/mol|
|  sn=10 | S(rot)=       0.00989481 Eh      6.21 kcal/mol|
|  sn=11 | S(rot)=       0.00980482 Eh      6.15 kcal/mol|
|  sn=12 | S(rot)=       0.00972266 Eh      6.10 kcal/mol|
 --------------------------------------------------------

-------------------
GIBBS FREE ENERGY
-------------------

The Gibbs free energy is G = H - T*S

Total enthalpy                    ...   -351.77821799 Eh
Total entropy correction          ...     -0.03398708 Eh    -21.33 kcal/mol
-----------------------------------------------------------------------
Final Gibbs free energy         ...   -351.81220507 Eh

For completeness - the Gibbs free energy minus the electronic energy
G-E(el)                           ...      0.02082761 Eh     13.07 kcal/mol

                             ****ORCA TERMINATED NORMALLY****
TOTAL RUN TIME: 0 days 0 hours 50 minutes 46 seconds 681 msec
