                         Program Version 5.0.1 -  RELEASE  -
|  1> ! MP2 UHF 6-31G(d) OPTTS NumFreq NoFrozenCore VERYTIGHTSCF VERYTIGHTOPT
|  2> %geom
|  3> MaxIter 200
|  4> end
|  5>
|  6> * XYZfile 0 2 input.xyz
|  7>
|  8>                          ****END OF INPUT****
 Total Charge           Charge          ....    0
 Multiplicity           Mult            ....    2
 Number of Electrons    NEL             ....   33
MP2 TOTAL ENERGY:     -252.780477923 Eh
FINAL SINGLE POINT ENERGY      -252.780477923150
MP2 TOTAL ENERGY:     -252.782378590 Eh
FINAL SINGLE POINT ENERGY      -252.782378589532
MP2 TOTAL ENERGY:     -252.786202735 Eh
FINAL SINGLE POINT ENERGY      -252.786202735222
MP2 TOTAL ENERGY:     -252.789751226 Eh
FINAL SINGLE POINT ENERGY      -252.789751225793
MP2 TOTAL ENERGY:     -252.797331051 Eh
FINAL SINGLE POINT ENERGY      -252.797331051043
MP2 TOTAL ENERGY:     -252.801755912 Eh
FINAL SINGLE POINT ENERGY      -252.801755912434
FINAL SINGLE POINT ENERGY      -252.811521873245
FINAL SINGLE POINT ENERGY      -252.816855109406
FINAL SINGLE POINT ENERGY      -252.822458379899
FINAL SINGLE POINT ENERGY      -252.823872579632
FINAL SINGLE POINT ENERGY      -252.829160055280
FINAL SINGLE POINT ENERGY      -252.829160304305
FINAL SINGLE POINT ENERGY      -252.829160492317
FINAL SINGLE POINT ENERGY      -252.829160627442
MP2 TOTAL ENERGY:     -252.829160726 Eh
FINAL SINGLE POINT ENERGY      -252.829160725844
MP2 TOTAL ENERGY:     -252.829160810 Eh
FINAL SINGLE POINT ENERGY      -252.829160809913
MP2 TOTAL ENERGY:     -252.829160867 Eh
FINAL SINGLE POINT ENERGY      -252.829160866743
MP2 TOTAL ENERGY:     -252.829160908 Eh
FINAL SINGLE POINT ENERGY      -252.829160907662
MP2 TOTAL ENERGY:     -252.829160963 Eh
FINAL SINGLE POINT ENERGY      -252.829160962955
                    ***********************HURRAY********************

CARTESIAN COORDINATES (ANGSTROEM)
---------------------------------
  C      1.203985    0.152432    0.099372
  C      0.602476    0.677081    1.358186
  F      1.350606    1.688693    1.931427
  O     -0.485784    1.172103    0.619730
  H      0.146277    0.802046   -0.398308
  H      1.087612   -0.902211   -0.127566
  H      2.097540    0.663109   -0.247970
  H      0.306154   -0.008212    2.153227

 Multiplicity           Mult            ....    2
 Number of Electrons    NEL             ....   33
 Basis Dimension        Dim             ....   64

ORBITAL ENERGIES
----------------
                 SPIN UP ORBITALS
  NO   OCC          E(Eh)            E(eV)
   0   1.0000     -26.287219      -715.3116
   1   1.0000     -20.627046      -561.2905
   2   1.0000     -11.378472      -309.6240
   3   1.0000     -11.265167      -306.5408
   4   1.0000      -1.602583       -43.6085
   5   1.0000      -1.427484       -38.8438
   6   1.0000      -1.034039       -28.1376
   7   1.0000      -0.882023       -24.0011
   8   1.0000      -0.748173       -20.3588
   9   1.0000      -0.725934       -19.7537
  10   1.0000      -0.692730       -18.8501
  11   1.0000      -0.667239       -18.1565
  12   1.0000      -0.604766       -16.4565
  13   1.0000      -0.569188       -15.4884
  14   1.0000      -0.536706       -14.6045
  15   1.0000      -0.513874       -13.9832
  16   1.0000      -0.425442       -11.5769
  17   0.0000       0.249588         6.7916
  18   0.0000       0.262411         7.1406
  19   0.0000       0.266184         7.2432
  20   0.0000       0.306707         8.3459
  21   0.0000       0.346341         9.4244

                 SPIN DOWN ORBITALS
  NO   OCC          E(Eh)            E(eV)
   0   1.0000     -26.287532      -715.3201
   1   1.0000     -20.593673      -560.3823
   2   1.0000     -11.381196      -309.6981
   3   1.0000     -11.248439      -306.0856
   4   1.0000      -1.602132       -43.5962
   5   1.0000      -1.333500       -36.2864
   6   1.0000      -0.981030       -26.6952
   7   1.0000      -0.862110       -23.4592
   8   1.0000      -0.736189       -20.0327
   9   1.0000      -0.684123       -18.6159
  10   1.0000      -0.679067       -18.4784
  11   1.0000      -0.597416       -16.2565
  12   1.0000      -0.591021       -16.0825
  13   1.0000      -0.555423       -15.1138
  14   1.0000      -0.497924       -13.5492
  15   1.0000      -0.470795       -12.8110
  16   0.0000       0.102445         2.7877
  17   0.0000       0.256200         6.9716
  18   0.0000       0.271257         7.3813
  19   0.0000       0.281299         7.6545
  20   0.0000       0.317653         8.6438

MULLIKEN ATOMIC CHARGES AND SPIN DENSITIES
------------------------------------------
   0 C :   -0.609128    0.544147
   1 C :    0.556234   -0.037185
   2 F :   -0.374563   -0.002830
   3 O :   -0.554076    0.530219
   4 H :    0.361791   -0.014091
   5 H :    0.219158   -0.014005
   6 H :    0.233467   -0.003485
   7 H :    0.167115   -0.002771
Sum of atomic charges       :   -0.0000000

LOEWDIN ATOMIC CHARGES AND SPIN DENSITIES
-----------------------------------------
   0 C :   -0.359109    0.472468
   1 C :    0.109725   -0.007605
   2 F :   -0.177878   -0.003259
   3 O :   -0.336438    0.545216
   4 H :    0.305729   -0.002512
   5 H :    0.163170   -0.004908
   6 H :    0.171054    0.002546
   7 H :    0.123748   -0.001947

  Mayer bond orders larger than 0.100000
B(  0-C ,  1-C ) :   0.9149 B(  0-C ,  3-O ) :   0.2320 B(  0-C ,  4-H ) :   0.4632
B(  0-C ,  5-H ) :   0.8889 B(  0-C ,  6-H ) :   0.8836 B(  1-C ,  2-F ) :   0.8356
B(  1-C ,  3-O ) :   0.8880 B(  1-C ,  7-H ) :   0.8973 B(  3-O ,  4-H ) :   0.3870

MP2 TOTAL ENERGY:     -252.829160989 Eh
FINAL SINGLE POINT ENERGY      -252.829160989221

DIPOLE MOMENT
-------------
                                X             Y             Z
Electronic contribution:      0.20515       2.91411       3.06064
Nuclear contribution   :      0.20532      -3.79148      -3.43782
                        -----------------------------------------
Total Dipole Moment    :      0.41047      -0.87737      -0.37718
                        -----------------------------------------
Magnitude (a.u.)       :      1.03948
Magnitude (Debye)      :      2.64215

VIBRATIONAL FREQUENCIES
-----------------------

Scaling factor for frequencies =  1.000000000 (already applied!)

   0:         0.00 cm**-1
   1:         0.00 cm**-1
   2:         0.00 cm**-1
   3:         0.00 cm**-1
   4:         0.00 cm**-1
   5:         0.00 cm**-1
   6:     -2436.68 cm**-1 ***imaginary mode***
   7:       390.38 cm**-1
   8:       435.13 cm**-1
   9:       532.06 cm**-1
  10:       786.24 cm**-1
  11:       918.74 cm**-1
  12:      1015.77 cm**-1
  13:      1054.57 cm**-1
  14:      1135.84 cm**-1
  15:      1182.63 cm**-1
  16:      1201.03 cm**-1
  17:      1323.87 cm**-1
  18:      1437.78 cm**-1
  19:      1471.33 cm**-1
  20:      2092.33 cm**-1
  21:      3194.42 cm**-1
  22:      3208.82 cm**-1
  23:      3334.06 cm**-1

IR SPECTRUM
-----------

 Mode   freq       eps      Int      T**2         TX        TY        TZ
       cm**-1   L/(mol*cm) km/mol    a.u.
----------------------------------------------------------------------------
  7:    390.38   0.000696    3.52  0.000556  (-0.000991  0.014441  0.018621)
  8:    435.13   0.000460    2.32  0.000330  (-0.005566  0.007592  0.015528)
  9:    532.06   0.000859    4.34  0.000504  ( 0.006360 -0.018779  0.010529)
 10:    786.24   0.003457   17.47  0.001372  ( 0.036430 -0.006345 -0.002167)
 11:    918.74   0.006600   33.35  0.002242  ( 0.014150  0.026274  0.036757)
 12:   1015.77   0.006140   31.03  0.001886  ( 0.014504 -0.016010  0.037679)
 13:   1054.57   0.004976   25.15  0.001473  (-0.032210  0.014275 -0.015210)
 14:   1135.84   0.009452   47.77  0.002597  ( 0.019009  0.036170 -0.030452)
 15:   1182.63   0.027397  138.45  0.007229  (-0.041185 -0.054989 -0.050093)
 16:   1201.03   0.006201   31.34  0.001611  (-0.011397 -0.019744 -0.033036)
 17:   1323.87   0.002208   11.16  0.000520  ( 0.005449  0.013228  0.017770)
 18:   1437.78   0.003677   18.58  0.000798  (-0.009102 -0.013044 -0.023349)
 19:   1471.33   0.006948   35.11  0.001474  ( 0.006253  0.014230  0.035102)
 20:   2092.33   0.004814   24.33  0.000718  (-0.008928  0.006016 -0.024537)
 21:   3194.42   0.007195   36.36  0.000703  ( 0.007143  0.015635 -0.020185)
 22:   3208.82   0.000771    3.90  0.000075  ( 0.005356  0.003856 -0.005606)
 23:   3334.06   0.000072    0.36  0.000007  ( 0.001720 -0.001651 -0.001033)

--------------------------
THERMOCHEMISTRY AT 298.15K
--------------------------

Temperature         ... 298.15 K
Pressure            ... 1.00 atm
Total Mass          ... 63.05 AMU

Throughout the following assumptions are being made:
  (1) The electronic state is orbitally nondegenerate
      but the spin degeneracy is treated
  (2) There are no thermally accessible electronically excited states
  (3) Hindered rotations indicated by low frequency modes are not
      treated as such but are treated as vibrations and this may
      cause some error
  (4) All equations used are the standard statistical mechanics
      equations for an ideal gas
  (5) All vibrations are strictly harmonic

freq.     390.38  E(vib)   ...       0.20
freq.     435.13  E(vib)   ...       0.17
freq.     532.06  E(vib)   ...       0.13
freq.     786.24  E(vib)   ...       0.05
freq.     918.74  E(vib)   ...       0.03
freq.    1015.77  E(vib)   ...       0.02
freq.    1054.57  E(vib)   ...       0.02
freq.    1135.84  E(vib)   ...       0.01
freq.    1182.63  E(vib)   ...       0.01
freq.    1201.03  E(vib)   ...       0.01
freq.    1323.87  E(vib)   ...       0.01
freq.    1437.78  E(vib)   ...       0.00
freq.    1471.33  E(vib)   ...       0.00
freq.    2092.33  E(vib)   ...       0.00
freq.    3194.42  E(vib)   ...       0.00
freq.    3208.82  E(vib)   ...       0.00
freq.    3334.06  E(vib)   ...       0.00

------------
INNER ENERGY
------------

The inner energy is: U= E(el) + E(ZPE) + E(vib) + E(rot) + E(trans)
    E(el)   - is the total energy from the electronic structure calculation
              = E(kin-el) + E(nuc-el) + E(el-el) + E(nuc-nuc)
    E(ZPE)  - the the zero temperature vibrational energy from the frequency calculation
    E(vib)  - the the finite temperature correction to E(ZPE) due to population
              of excited vibrational states
    E(rot)  - is the rotational thermal energy
    E(trans)- is the translational thermal energy

Summary of contributions to the inner energy U:
Electronic energy                ...   -252.82916096 Eh
Zero point energy                ...      0.05630490 Eh      35.33 kcal/mol
Thermal vibrational correction   ...      0.00107306 Eh       0.67 kcal/mol
Thermal rotational correction    ...      0.00141627 Eh       0.89 kcal/mol
Thermal translational correction ...      0.00141627 Eh       0.89 kcal/mol
-----------------------------------------------------------------------
Total thermal energy                   -252.76895045 Eh

Summary of corrections to the electronic energy:
(perhaps to be used in another calculation)
Total thermal correction                  0.00390561 Eh       2.45 kcal/mol
Non-thermal (ZPE) correction              0.05630490 Eh      35.33 kcal/mol
-----------------------------------------------------------------------
Total correction                          0.06021051 Eh      37.78 kcal/mol

--------
ENTHALPY
--------

The enthalpy is H = U + kB*T
                kB is Boltzmann's constant
Total free energy                 ...   -252.76895045 Eh
Thermal Enthalpy correction       ...      0.00094421 Eh       0.59 kcal/mol
-----------------------------------------------------------------------
Total Enthalpy                    ...   -252.76800624 Eh

Note: Only C1 symmetry has been detected, increase convergence thresholds
      if your molecule has a higher symmetry. Symmetry factor of 1.0 is
      used for the rotational entropy correction.

Note: Rotational entropy computed according to Herzberg
Infrared and Raman Spectra, Chapter V,1, Van Nostrand Reinhold, 1945
Point Group:  C1, Symmetry Number:   1
Rotational constants in cm-1:     0.412888     0.268943     0.188089

Vibrational entropy computed according to the QRRHO of S. Grimme
Chem.Eur.J. 2012 18 9955

-------
ENTROPY
-------

The entropy contributions are T*S = T*(S(el)+S(vib)+S(rot)+S(trans))
     S(el)   - electronic entropy
     S(vib)  - vibrational entropy
     S(rot)  - rotational entropy
     S(trans)- translational entropy
The entropies will be listed as multiplied by the temperature to get
units of energy

Electronic entropy                ...      0.00065446 Eh      0.41 kcal/mol
Vibrational entropy               ...      0.00148870 Eh      0.93 kcal/mol
Rotational entropy                ...      0.01133718 Eh      7.11 kcal/mol
Translational entropy             ...      0.01821802 Eh     11.43 kcal/mol
-----------------------------------------------------------------------
Final entropy term                ...      0.03169835 Eh     19.89 kcal/mol

In case the symmetry of your molecule has not been determined correctly
or in case you have a reason to use a different symmetry number we print
out the resulting rotational entropy values for sn=1,12 :
 --------------------------------------------------------
|  sn= 1 | S(rot)=       0.01133718 Eh      7.11 kcal/mol|
|  sn= 2 | S(rot)=       0.01068272 Eh      6.70 kcal/mol|
|  sn= 3 | S(rot)=       0.01029989 Eh      6.46 kcal/mol|
|  sn= 4 | S(rot)=       0.01002826 Eh      6.29 kcal/mol|
|  sn= 5 | S(rot)=       0.00981757 Eh      6.16 kcal/mol|
|  sn= 6 | S(rot)=       0.00964543 Eh      6.05 kcal/mol|
|  sn= 7 | S(rot)=       0.00949988 Eh      5.96 kcal/mol|
|  sn= 8 | S(rot)=       0.00937381 Eh      5.88 kcal/mol|
|  sn= 9 | S(rot)=       0.00926260 Eh      5.81 kcal/mol|
|  sn=10 | S(rot)=       0.00916312 Eh      5.75 kcal/mol|
|  sn=11 | S(rot)=       0.00907313 Eh      5.69 kcal/mol|
|  sn=12 | S(rot)=       0.00899097 Eh      5.64 kcal/mol|
 --------------------------------------------------------

-------------------
GIBBS FREE ENERGY
-------------------

The Gibbs free energy is G = H - T*S

Total enthalpy                    ...   -252.76800624 Eh
Total entropy correction          ...     -0.03169835 Eh    -19.89 kcal/mol
-----------------------------------------------------------------------
Final Gibbs free energy         ...   -252.79970459 Eh

For completeness - the Gibbs free energy minus the electronic energy
G-E(el)                           ...      0.02945637 Eh     18.48 kcal/mol

                             ****ORCA TERMINATED NORMALLY****
TOTAL RUN TIME: 0 days 0 hours 31 minutes 51 seconds 731 msec
