                         Program Version 5.0.1 -  RELEASE  -
|  1> ! MP2 UHF 6-31G(d) OPTTS NumFreq NoFrozenCore VERYTIGHTSCF VERYTIGHTOPT
|  2> %geom
|  3> MaxIter 200
|  4> end
|  5>
|  6> * XYZfile 0 2 input.xyz
|  7>
|  8>                          ****END OF INPUT****
 Total Charge           Charge          ....    0
 Multiplicity           Mult            ....    2
 Number of Electrons    NEL             ....   33
MP2 TOTAL ENERGY:     -252.833692937 Eh
FINAL SINGLE POINT ENERGY      -252.833692937058
MP2 TOTAL ENERGY:     -252.833414899 Eh
FINAL SINGLE POINT ENERGY      -252.833414898912
MP2 TOTAL ENERGY:     -252.833105961 Eh
FINAL SINGLE POINT ENERGY      -252.833105960826
MP2 TOTAL ENERGY:     -252.832773512 Eh
FINAL SINGLE POINT ENERGY      -252.832773511549
MP2 TOTAL ENERGY:     -252.832428359 Eh
FINAL SINGLE POINT ENERGY      -252.832428358564
MP2 TOTAL ENERGY:     -252.832102476 Eh
FINAL SINGLE POINT ENERGY      -252.832102475687
FINAL SINGLE POINT ENERGY      -252.831845492115
FINAL SINGLE POINT ENERGY      -252.831679023336
FINAL SINGLE POINT ENERGY      -252.831641659173
FINAL SINGLE POINT ENERGY      -252.831677139935
FINAL SINGLE POINT ENERGY      -252.834045618854
FINAL SINGLE POINT ENERGY      -252.834045686099
FINAL SINGLE POINT ENERGY      -252.834045700881
FINAL SINGLE POINT ENERGY      -252.834045716162
MP2 TOTAL ENERGY:     -252.834045728 Eh
FINAL SINGLE POINT ENERGY      -252.834045728036
MP2 TOTAL ENERGY:     -252.834045737 Eh
FINAL SINGLE POINT ENERGY      -252.834045737150
MP2 TOTAL ENERGY:     -252.834045761 Eh
FINAL SINGLE POINT ENERGY      -252.834045761066
MP2 TOTAL ENERGY:     -252.834045776 Eh
FINAL SINGLE POINT ENERGY      -252.834045775857
MP2 TOTAL ENERGY:     -252.834045793 Eh
FINAL SINGLE POINT ENERGY      -252.834045793112
                    ***********************HURRAY********************

CARTESIAN COORDINATES (ANGSTROEM)
---------------------------------
  C      1.098674   -0.279285    0.004053
  C      0.635801   -0.139021    1.431595
  F      1.991123    0.364944    2.220502
  O     -0.170209   -0.771725    2.023377
  H      1.712575    0.565315   -0.299969
  H      0.223773   -0.382079   -0.638112
  H      1.692155   -1.195086   -0.042441
  H      0.720229    1.057814    1.801717

 Multiplicity           Mult            ....    2
 Number of Electrons    NEL             ....   33
 Basis Dimension        Dim             ....   64

ORBITAL ENERGIES
----------------
                 SPIN UP ORBITALS
  NO   OCC          E(Eh)            E(eV)
   0   1.0000     -26.253836      -714.4032
   1   1.0000     -20.647925      -561.8586
   2   1.0000     -11.392117      -309.9953
   3   1.0000     -11.260420      -306.4116
   4   1.0000      -1.550408       -42.1888
   5   1.0000      -1.491630       -40.5893
   6   1.0000      -1.045615       -28.4526
   7   1.0000      -0.856123       -23.2963
   8   1.0000      -0.751186       -20.4408
   9   1.0000      -0.709077       -19.2950
  10   1.0000      -0.680893       -18.5280
  11   1.0000      -0.632717       -17.2171
  12   1.0000      -0.604307       -16.4440
  13   1.0000      -0.590978       -16.0813
  14   1.0000      -0.567904       -15.4535
  15   1.0000      -0.526049       -14.3145
  16   1.0000      -0.442861       -12.0509
  17   0.0000       0.203585         5.5398
  18   0.0000       0.236024         6.4225
  19   0.0000       0.250807         6.8248
  20   0.0000       0.309002         8.4084
  21   0.0000       0.319812         8.7025

                 SPIN DOWN ORBITALS
  NO   OCC          E(Eh)            E(eV)
   0   1.0000     -26.237255      -713.9520
   1   1.0000     -20.619980      -561.0982
   2   1.0000     -11.399556      -310.1977
   3   1.0000     -11.257985      -306.3453
   4   1.0000      -1.502504       -40.8852
   5   1.0000      -1.425384       -38.7867
   6   1.0000      -1.033455       -28.1217
   7   1.0000      -0.800501       -21.7827
   8   1.0000      -0.696395       -18.9499
   9   1.0000      -0.671315       -18.2674
  10   1.0000      -0.660450       -17.9718
  11   1.0000      -0.599403       -16.3106
  12   1.0000      -0.581583       -15.8257
  13   1.0000      -0.556909       -15.1543
  14   1.0000      -0.505909       -13.7665
  15   1.0000      -0.446696       -12.1552
  16   0.0000       0.037222         1.0129
  17   0.0000       0.230297         6.2667
  18   0.0000       0.244066         6.6414
  19   0.0000       0.262475         7.1423
  20   0.0000       0.315535         8.5862

MULLIKEN ATOMIC CHARGES AND SPIN DENSITIES
------------------------------------------
   0 C :   -0.547712    0.018891
   1 C :    0.378554    0.210123
   2 F :   -0.391158    0.208766
   3 O :   -0.373525    0.211342
   4 H :    0.204035   -0.003060
   5 H :    0.212134   -0.000299
   6 H :    0.230296    0.023580
   7 H :    0.287377    0.330656
Sum of atomic charges       :    0.0000000

LOEWDIN ATOMIC CHARGES AND SPIN DENSITIES
-----------------------------------------
   0 C :   -0.404220    0.034320
   1 C :    0.127771    0.193039
   2 F :   -0.301747    0.235691
   3 O :   -0.187766    0.219040
   4 H :    0.159857   -0.001977
   5 H :    0.164912   -0.000302
   6 H :    0.177670    0.016175
   7 H :    0.263523    0.304013

  Mayer bond orders larger than 0.100000
B(  0-C ,  1-C ) :   0.8852 B(  0-C ,  4-H ) :   0.9022 B(  0-C ,  5-H ) :   0.8943
B(  0-C ,  6-H ) :   0.8914 B(  1-C ,  2-F ) :   0.4673 B(  1-C ,  3-O ) :   2.0072
B(  1-C ,  7-H ) :   0.5124 B(  2-F ,  3-O ) :   0.1452 B(  2-F ,  7-H ) :   0.2117

MP2 TOTAL ENERGY:     -252.834045779 Eh
FINAL SINGLE POINT ENERGY      -252.834045778644

DIPOLE MOMENT
-------------
                                X             Y             Z
Electronic contribution:      0.56623       0.29021       4.28867
Nuclear contribution   :     -0.48541       0.16180      -5.43069
                        -----------------------------------------
Total Dipole Moment    :      0.08082       0.45201      -1.14202
                        -----------------------------------------
Magnitude (a.u.)       :      1.23087
Magnitude (Debye)      :      3.12863

VIBRATIONAL FREQUENCIES
-----------------------

Scaling factor for frequencies =  1.000000000 (already applied!)

   0:         0.00 cm**-1
   1:         0.00 cm**-1
   2:         0.00 cm**-1
   3:         0.00 cm**-1
   4:         0.00 cm**-1
   5:         0.00 cm**-1
   6:      -777.53 cm**-1 ***imaginary mode***
   7:       156.24 cm**-1
   8:       348.54 cm**-1
   9:       486.22 cm**-1
  10:       563.09 cm**-1
  11:       704.63 cm**-1
  12:       972.09 cm**-1
  13:      1010.24 cm**-1
  14:      1078.69 cm**-1
  15:      1147.32 cm**-1
  16:      1443.62 cm**-1
  17:      1528.80 cm**-1
  18:      1539.75 cm**-1
  19:      1591.75 cm**-1
  20:      2036.22 cm**-1
  21:      3138.95 cm**-1
  22:      3238.11 cm**-1
  23:      3266.71 cm**-1

IR SPECTRUM
-----------

 Mode   freq       eps      Int      T**2         TX        TY        TZ
       cm**-1   L/(mol*cm) km/mol    a.u.
----------------------------------------------------------------------------
  7:    156.24   0.000135    0.68  0.000270  ( 0.001523  0.000059 -0.016371)
  8:    348.54   0.001597    8.07  0.001430  (-0.013434 -0.008025 -0.034423)
  9:    486.22   0.009965   50.36  0.006396  (-0.036142  0.001891  0.071316)
 10:    563.09   0.007566   38.24  0.004193  ( 0.010917 -0.042317 -0.047782)
 11:    704.63   0.033797  170.79  0.014968  ( 0.118186  0.029465 -0.011479)
 12:    972.09   0.007693   38.88  0.002470  ( 0.032030 -0.006511  0.037434)
 13:   1010.24   0.011828   59.77  0.003654  ( 0.051223  0.025272  0.019777)
 14:   1078.69   0.008877   44.86  0.002568  ( 0.009556 -0.039518 -0.030251)
 15:   1147.32   0.018218   92.07  0.004955  ( 0.046003  0.024487  0.047321)
 16:   1443.62   0.001980   10.01  0.000428  ( 0.003438 -0.008095 -0.018727)
 17:   1528.80   0.003670   18.55  0.000749  ( 0.019365  0.018545  0.005503)
 18:   1539.75   0.003245   16.40  0.000658  (-0.018678  0.005813 -0.016583)
 19:   1591.75   0.022033  111.35  0.004320  (-0.033778 -0.020826 -0.052392)
 20:   2036.22   0.052576  265.70  0.008058  ( 0.064642  0.057527 -0.023867)
 21:   3138.95   0.000043    0.22  0.000004  ( 0.000957  0.001662 -0.000750)
 22:   3238.11   0.000294    1.49  0.000028  (-0.000343 -0.001230  0.005167)
 23:   3266.71   0.000424    2.14  0.000040  ( 0.004907  0.003645 -0.001762)

--------------------------
THERMOCHEMISTRY AT 298.15K
--------------------------

Temperature         ... 298.15 K
Pressure            ... 1.00 atm
Total Mass          ... 63.05 AMU

Throughout the following assumptions are being made:
  (1) The electronic state is orbitally nondegenerate
      but the spin degeneracy is treated
  (2) There are no thermally accessible electronically excited states
  (3) Hindered rotations indicated by low frequency modes are not
      treated as such but are treated as vibrations and this may
      cause some error
  (4) All equations used are the standard statistical mechanics
      equations for an ideal gas
  (5) All vibrations are strictly harmonic

freq.     156.24  E(vib)   ...       0.40
freq.     348.54  E(vib)   ...       0.23
freq.     486.22  E(vib)   ...       0.15
freq.     563.09  E(vib)   ...       0.11
freq.     704.63  E(vib)   ...       0.07
freq.     972.09  E(vib)   ...       0.03
freq.    1010.24  E(vib)   ...       0.02
freq.    1078.69  E(vib)   ...       0.02
freq.    1147.32  E(vib)   ...       0.01
freq.    1443.62  E(vib)   ...       0.00
freq.    1528.80  E(vib)   ...       0.00
freq.    1539.75  E(vib)   ...       0.00
freq.    1591.75  E(vib)   ...       0.00
freq.    2036.22  E(vib)   ...       0.00
freq.    3138.95  E(vib)   ...       0.00
freq.    3238.11  E(vib)   ...       0.00
freq.    3266.71  E(vib)   ...       0.00

------------
INNER ENERGY
------------

The inner energy is: U= E(el) + E(ZPE) + E(vib) + E(rot) + E(trans)
    E(el)   - is the total energy from the electronic structure calculation
              = E(kin-el) + E(nuc-el) + E(el-el) + E(nuc-nuc)
    E(ZPE)  - the the zero temperature vibrational energy from the frequency calculation
    E(vib)  - the the finite temperature correction to E(ZPE) due to population
              of excited vibrational states
    E(rot)  - is the rotational thermal energy
    E(trans)- is the translational thermal energy

Summary of contributions to the inner energy U:
Electronic energy                ...   -252.83404574 Eh
Zero point energy                ...      0.05524782 Eh      34.67 kcal/mol
Thermal vibrational correction   ...      0.00166513 Eh       1.04 kcal/mol
Thermal rotational correction    ...      0.00141627 Eh       0.89 kcal/mol
Thermal translational correction ...      0.00141627 Eh       0.89 kcal/mol
-----------------------------------------------------------------------
Total thermal energy                   -252.77430025 Eh

Summary of corrections to the electronic energy:
(perhaps to be used in another calculation)
Total thermal correction                  0.00449767 Eh       2.82 kcal/mol
Non-thermal (ZPE) correction              0.05524782 Eh      34.67 kcal/mol
-----------------------------------------------------------------------
Total correction                          0.05974550 Eh      37.49 kcal/mol

--------
ENTHALPY
--------

The enthalpy is H = U + kB*T
                kB is Boltzmann's constant
Total free energy                 ...   -252.77430025 Eh
Thermal Enthalpy correction       ...      0.00094421 Eh       0.59 kcal/mol
-----------------------------------------------------------------------
Total Enthalpy                    ...   -252.77335604 Eh

Note: Only C1 symmetry has been detected, increase convergence thresholds
      if your molecule has a higher symmetry. Symmetry factor of 1.0 is
      used for the rotational entropy correction.

Note: Rotational entropy computed according to Herzberg
Infrared and Raman Spectra, Chapter V,1, Van Nostrand Reinhold, 1945
Point Group:  C1, Symmetry Number:   1
Rotational constants in cm-1:     0.319699     0.278056     0.158434

Vibrational entropy computed according to the QRRHO of S. Grimme
Chem.Eur.J. 2012 18 9955

-------
ENTROPY
-------

The entropy contributions are T*S = T*(S(el)+S(vib)+S(rot)+S(trans))
     S(el)   - electronic entropy
     S(vib)  - vibrational entropy
     S(rot)  - rotational entropy
     S(trans)- translational entropy
The entropies will be listed as multiplied by the temperature to get
units of energy

Electronic entropy                ...      0.00065446 Eh      0.41 kcal/mol
Vibrational entropy               ...      0.00266863 Eh      1.67 kcal/mol
Rotational entropy                ...      0.01152320 Eh      7.23 kcal/mol
Translational entropy             ...      0.01821802 Eh     11.43 kcal/mol
-----------------------------------------------------------------------
Final entropy term                ...      0.03306431 Eh     20.75 kcal/mol

In case the symmetry of your molecule has not been determined correctly
or in case you have a reason to use a different symmetry number we print
out the resulting rotational entropy values for sn=1,12 :
 --------------------------------------------------------
|  sn= 1 | S(rot)=       0.01152320 Eh      7.23 kcal/mol|
|  sn= 2 | S(rot)=       0.01086875 Eh      6.82 kcal/mol|
|  sn= 3 | S(rot)=       0.01048591 Eh      6.58 kcal/mol|
|  sn= 4 | S(rot)=       0.01021429 Eh      6.41 kcal/mol|
|  sn= 5 | S(rot)=       0.01000360 Eh      6.28 kcal/mol|
|  sn= 6 | S(rot)=       0.00983146 Eh      6.17 kcal/mol|
|  sn= 7 | S(rot)=       0.00968591 Eh      6.08 kcal/mol|
|  sn= 8 | S(rot)=       0.00955983 Eh      6.00 kcal/mol|
|  sn= 9 | S(rot)=       0.00944862 Eh      5.93 kcal/mol|
|  sn=10 | S(rot)=       0.00934915 Eh      5.87 kcal/mol|
|  sn=11 | S(rot)=       0.00925916 Eh      5.81 kcal/mol|
|  sn=12 | S(rot)=       0.00917700 Eh      5.76 kcal/mol|
 --------------------------------------------------------

-------------------
GIBBS FREE ENERGY
-------------------

The Gibbs free energy is G = H - T*S

Total enthalpy                    ...   -252.77335604 Eh
Total entropy correction          ...     -0.03306431 Eh    -20.75 kcal/mol
-----------------------------------------------------------------------
Final Gibbs free energy         ...   -252.80642035 Eh

For completeness - the Gibbs free energy minus the electronic energy
G-E(el)                           ...      0.02762540 Eh     17.34 kcal/mol

                             ****ORCA TERMINATED NORMALLY****
TOTAL RUN TIME: 0 days 0 hours 33 minutes 31 seconds 210 msec
