                         Program Version 5.0.1 -  RELEASE  -
|  1> ! MP2 UHF 6-31G(d) OPTTS NumFreq NoFrozenCore VERYTIGHTSCF VERYTIGHTOPT
|  2>
|  3> * XYZfile 0 2 input.xyz
|  4>
|  5>                          ****END OF INPUT****
 Total Charge           Charge          ....    0
 Multiplicity           Mult            ....    2
 Number of Electrons    NEL             ....   41
MP2 TOTAL ENERGY:     -351.833482163 Eh
FINAL SINGLE POINT ENERGY      -351.833482162892
MP2 TOTAL ENERGY:     -351.833388761 Eh
FINAL SINGLE POINT ENERGY      -351.833388761051
MP2 TOTAL ENERGY:     -351.833225950 Eh
FINAL SINGLE POINT ENERGY      -351.833225950217
MP2 TOTAL ENERGY:     -351.833538768 Eh
FINAL SINGLE POINT ENERGY      -351.833538767609
MP2 TOTAL ENERGY:     -351.833308716 Eh
FINAL SINGLE POINT ENERGY      -351.833308716177
MP2 TOTAL ENERGY:     -351.833357964 Eh
FINAL SINGLE POINT ENERGY      -351.833357963860
FINAL SINGLE POINT ENERGY      -351.833510624037
FINAL SINGLE POINT ENERGY      -351.833181892251
FINAL SINGLE POINT ENERGY      -351.833233415788
FINAL SINGLE POINT ENERGY      -351.833303523950
FINAL SINGLE POINT ENERGY      -351.833488471887
FINAL SINGLE POINT ENERGY      -351.833488529559
FINAL SINGLE POINT ENERGY      -351.833488567093
FINAL SINGLE POINT ENERGY      -351.833488600154
MP2 TOTAL ENERGY:     -351.833488629 Eh
FINAL SINGLE POINT ENERGY      -351.833488629430
MP2 TOTAL ENERGY:     -351.833488655 Eh
FINAL SINGLE POINT ENERGY      -351.833488655319
MP2 TOTAL ENERGY:     -351.833488678 Eh
FINAL SINGLE POINT ENERGY      -351.833488678204
MP2 TOTAL ENERGY:     -351.833488698 Eh
FINAL SINGLE POINT ENERGY      -351.833488698492
MP2 TOTAL ENERGY:     -351.833488707 Eh
FINAL SINGLE POINT ENERGY      -351.833488707485
                    ***********************HURRAY********************

CARTESIAN COORDINATES (ANGSTROEM)
---------------------------------
  C      0.916254    0.260512    0.198144
  H      1.395402   -0.581426   -0.311779
  C      0.536783    1.307669   -0.826537
  F     -1.312900    0.358445   -1.965559
  O      1.307810    2.068136   -1.363496
  H      1.609781    0.694479    0.923075
  F     -0.226576   -0.181767    0.841887
  H     -0.588251    1.297628   -1.081575

 Multiplicity           Mult            ....    2
 Number of Electrons    NEL             ....   41
 Basis Dimension        Dim             ....   76

ORBITAL ENERGIES
----------------
                 SPIN UP ORBITALS
  NO   OCC          E(Eh)            E(eV)
   0   1.0000     -26.403850      -718.4853
   1   1.0000     -26.302637      -715.7311
   2   1.0000     -20.597409      -560.4840
   3   1.0000     -11.366708      -309.3039
   4   1.0000     -11.341954      -308.6302
   5   1.0000      -1.669923       -45.4409
   6   1.0000      -1.611407       -43.8486
   7   1.0000      -1.422672       -38.7129
   8   1.0000      -1.032661       -28.1001
   9   1.0000      -0.894680       -24.3455
  10   1.0000      -0.800519       -21.7832
  11   1.0000      -0.733101       -19.9487
  12   1.0000      -0.727598       -19.7990
  13   1.0000      -0.722985       -19.6734
  14   1.0000      -0.719680       -19.5835
  15   1.0000      -0.701967       -19.1015
  16   1.0000      -0.645025       -17.5520
  17   1.0000      -0.600743       -16.3470
  18   1.0000      -0.585247       -15.9254
  19   1.0000      -0.521142       -14.1810
  20   1.0000      -0.439463       -11.9584
  21   0.0000       0.124508         3.3880
  22   0.0000       0.236735         6.4419
  23   0.0000       0.272806         7.4234
  24   0.0000       0.310455         8.4479
  25   0.0000       0.349282         9.5044

                 SPIN DOWN ORBITALS
  NO   OCC          E(Eh)            E(eV)
   0   1.0000     -26.357019      -717.2110
   1   1.0000     -26.302741      -715.7340
   2   1.0000     -20.595439      -560.4304
   3   1.0000     -11.361589      -309.1645
   4   1.0000     -11.341232      -308.6106
   5   1.0000      -1.611674       -43.8559
   6   1.0000      -1.494694       -40.6727
   7   1.0000      -1.416976       -38.5579
   8   1.0000      -1.026282       -27.9266
   9   1.0000      -0.827720       -22.5234
  10   1.0000      -0.729985       -19.8639
  11   1.0000      -0.720205       -19.5978
  12   1.0000      -0.701752       -19.0957
  13   1.0000      -0.678416       -18.4606
  14   1.0000      -0.675359       -18.3774
  15   1.0000      -0.651045       -17.7158
  16   1.0000      -0.596814       -16.2401
  17   1.0000      -0.582605       -15.8535
  18   1.0000      -0.520786       -14.1713
  19   1.0000      -0.442008       -12.0277
  20   0.0000       0.040265         1.0957
  21   0.0000       0.137547         3.7428
  22   0.0000       0.238477         6.4893
  23   0.0000       0.276548         7.5253
  24   0.0000       0.311361         8.4726

MULLIKEN ATOMIC CHARGES AND SPIN DENSITIES
------------------------------------------
   0 C :    0.017390    0.038739
   1 H :    0.202608   -0.000288
   2 C :    0.175875    0.101814
   3 F :   -0.148666    0.799831
   4 O :   -0.318923    0.130111
   5 H :    0.199578   -0.001227
   6 F :   -0.360369   -0.001651
   7 H :    0.232508   -0.067330
Sum of atomic charges       :    0.0000000

LOEWDIN ATOMIC CHARGES AND SPIN DENSITIES
-----------------------------------------
   0 C :   -0.076172    0.030747
   1 H :    0.155032   -0.000065
   2 C :    0.050056    0.088843
   3 F :   -0.139076    0.787454
   4 O :   -0.127403    0.120460
   5 H :    0.151463   -0.000785
   6 F :   -0.179082   -0.001331
   7 H :    0.165184   -0.025323

  Mayer bond orders larger than 0.100000
B(  0-C ,  1-H ) :   0.8844 B(  0-C ,  2-C ) :   0.8562 B(  0-C ,  5-H ) :   0.8874
B(  0-C ,  6-F ) :   0.8137 B(  2-C ,  3-F ) :   0.1301 B(  2-C ,  4-O ) :   1.8695
B(  2-C ,  7-H ) :   0.6835 B(  3-F ,  7-H ) :   0.1810

MP2 TOTAL ENERGY:     -351.833488725 Eh
FINAL SINGLE POINT ENERGY      -351.833488724928

DIPOLE MOMENT
-------------
                                X             Y             Z
Electronic contribution:     -3.08634      -0.75248      -0.77311
Nuclear contribution   :      3.57390       0.50730       1.19633
                        -----------------------------------------
Total Dipole Moment    :      0.48757      -0.24518       0.42322
                        -----------------------------------------
Magnitude (a.u.)       :      0.69062
Magnitude (Debye)      :      1.75541

VIBRATIONAL FREQUENCIES
-----------------------

Scaling factor for frequencies =  1.000000000 (already applied!)

   0:         0.00 cm**-1
   1:         0.00 cm**-1
   2:         0.00 cm**-1
   3:         0.00 cm**-1
   4:         0.00 cm**-1
   5:         0.00 cm**-1
   6:     -1120.86 cm**-1 ***imaginary mode***
   7:        57.72 cm**-1
   8:        66.28 cm**-1
   9:       148.09 cm**-1
  10:       330.32 cm**-1
  11:       531.14 cm**-1
  12:       589.98 cm**-1
  13:      1022.29 cm**-1
  14:      1088.94 cm**-1
  15:      1135.37 cm**-1
  16:      1270.39 cm**-1
  17:      1289.25 cm**-1
  18:      1418.43 cm**-1
  19:      1543.27 cm**-1
  20:      1827.28 cm**-1
  21:      2132.46 cm**-1
  22:      3125.56 cm**-1
  23:      3197.74 cm**-1

IR SPECTRUM
-----------

 Mode   freq       eps      Int      T**2         TX        TY        TZ
       cm**-1   L/(mol*cm) km/mol    a.u.
----------------------------------------------------------------------------
  7:     57.72   0.002192   11.08  0.011848  ( 0.017587  0.070185  0.081319)
  8:     66.28   0.000219    1.11  0.001033  (-0.012580  0.002412 -0.029483)
  9:    148.09   0.001090    5.51  0.002297  ( 0.039772 -0.022291 -0.014764)
 10:    330.32   0.004192   21.18  0.003960  ( 0.032075 -0.045822  0.028834)
 11:    531.14   0.002894   14.62  0.001700  ( 0.037425 -0.000701  0.017293)
 12:    589.98   0.019727   99.69  0.010434  ( 0.074605  0.034678  0.060546)
 13:   1022.29   0.009046   45.72  0.002761  (-0.041881 -0.022598 -0.022287)
 14:   1088.94   0.005046   25.50  0.001446  (-0.030482  0.008033 -0.021271)
 15:   1135.37   0.014786   74.72  0.004064  (-0.047818 -0.023176  0.035218)
 16:   1270.39   0.000523    2.64  0.000128  (-0.005496 -0.005139 -0.008474)
 17:   1289.25   0.003287   16.61  0.000796  (-0.016264 -0.015718 -0.016856)
 18:   1418.43   0.002894   14.63  0.000637  (-0.004063 -0.003706  0.024628)
 19:   1543.27   0.001154    5.83  0.000233  (-0.001963  0.012337 -0.008787)
 20:   1827.28   0.058858  297.44  0.010052  ( 0.081038  0.057781  0.012077)
 21:   2132.46   0.306191  1547.36  0.044808  ( 0.168834  0.064902  0.109957)
 22:   3125.56   0.001924    9.72  0.000192  ( 0.013306  0.000944 -0.003766)
 23:   3197.74   0.001473    7.44  0.000144  ( 0.002937  0.007457  0.008915)

--------------------------
THERMOCHEMISTRY AT 298.15K
--------------------------

Temperature         ... 298.15 K
Pressure            ... 1.00 atm
Total Mass          ... 81.04 AMU

Throughout the following assumptions are being made:
  (1) The electronic state is orbitally nondegenerate
      but the spin degeneracy is treated
  (2) There are no thermally accessible electronically excited states
  (3) Hindered rotations indicated by low frequency modes are not
      treated as such but are treated as vibrations and this may
      cause some error
  (4) All equations used are the standard statistical mechanics
      equations for an ideal gas
  (5) All vibrations are strictly harmonic

freq.      57.72  E(vib)   ...       0.51
freq.      66.28  E(vib)   ...       0.50
freq.     148.09  E(vib)   ...       0.41
freq.     330.32  E(vib)   ...       0.24
freq.     531.14  E(vib)   ...       0.13
freq.     589.98  E(vib)   ...       0.10
freq.    1022.29  E(vib)   ...       0.02
freq.    1088.94  E(vib)   ...       0.02
freq.    1135.37  E(vib)   ...       0.01
freq.    1270.39  E(vib)   ...       0.01
freq.    1289.25  E(vib)   ...       0.01
freq.    1418.43  E(vib)   ...       0.00
freq.    1543.27  E(vib)   ...       0.00
freq.    1827.28  E(vib)   ...       0.00
freq.    2132.46  E(vib)   ...       0.00
freq.    3125.56  E(vib)   ...       0.00
freq.    3197.74  E(vib)   ...       0.00

------------
INNER ENERGY
------------

The inner energy is: U= E(el) + E(ZPE) + E(vib) + E(rot) + E(trans)
    E(el)   - is the total energy from the electronic structure calculation
              = E(kin-el) + E(nuc-el) + E(el-el) + E(nuc-nuc)
    E(ZPE)  - the the zero temperature vibrational energy from the frequency calculation
    E(vib)  - the the finite temperature correction to E(ZPE) due to population
              of excited vibrational states
    E(rot)  - is the rotational thermal energy
    E(trans)- is the translational thermal energy

Summary of contributions to the inner energy U:
Electronic energy                ...   -351.83348872 Eh
Zero point energy                ...      0.04732784 Eh      29.70 kcal/mol
Thermal vibrational correction   ...      0.00313641 Eh       1.97 kcal/mol
Thermal rotational correction    ...      0.00141627 Eh       0.89 kcal/mol
Thermal translational correction ...      0.00141627 Eh       0.89 kcal/mol
-----------------------------------------------------------------------
Total thermal energy                   -351.78019193 Eh

Summary of corrections to the electronic energy:
(perhaps to be used in another calculation)
Total thermal correction                  0.00596895 Eh       3.75 kcal/mol
Non-thermal (ZPE) correction              0.04732784 Eh      29.70 kcal/mol
-----------------------------------------------------------------------
Total correction                          0.05329679 Eh      33.44 kcal/mol

--------
ENTHALPY
--------

The enthalpy is H = U + kB*T
                kB is Boltzmann's constant
Total free energy                 ...   -351.78019193 Eh
Thermal Enthalpy correction       ...      0.00094421 Eh       0.59 kcal/mol
-----------------------------------------------------------------------
Total Enthalpy                    ...   -351.77924772 Eh

Note: Only C1 symmetry has been detected, increase convergence thresholds
      if your molecule has a higher symmetry. Symmetry factor of 1.0 is
      used for the rotational entropy correction.

Note: Rotational entropy computed according to Herzberg
Infrared and Raman Spectra, Chapter V,1, Van Nostrand Reinhold, 1945
Point Group:  C1, Symmetry Number:   1
Rotational constants in cm-1:     0.153235     0.135993     0.075449

Vibrational entropy computed according to the QRRHO of S. Grimme
Chem.Eur.J. 2012 18 9955

-------
ENTROPY
-------

The entropy contributions are T*S = T*(S(el)+S(vib)+S(rot)+S(trans))
     S(el)   - electronic entropy
     S(vib)  - vibrational entropy
     S(rot)  - rotational entropy
     S(trans)- translational entropy
The entropies will be listed as multiplied by the temperature to get
units of energy

Electronic entropy                ...      0.00065446 Eh      0.41 kcal/mol
Vibrational entropy               ...      0.00579935 Eh      3.64 kcal/mol
Rotational entropy                ...      0.01255827 Eh      7.88 kcal/mol
Translational entropy             ...      0.01857352 Eh     11.66 kcal/mol
-----------------------------------------------------------------------
Final entropy term                ...      0.03758560 Eh     23.59 kcal/mol

In case the symmetry of your molecule has not been determined correctly
or in case you have a reason to use a different symmetry number we print
out the resulting rotational entropy values for sn=1,12 :
 --------------------------------------------------------
|  sn= 1 | S(rot)=       0.01255827 Eh      7.88 kcal/mol|
|  sn= 2 | S(rot)=       0.01190381 Eh      7.47 kcal/mol|
|  sn= 3 | S(rot)=       0.01152098 Eh      7.23 kcal/mol|
|  sn= 4 | S(rot)=       0.01124935 Eh      7.06 kcal/mol|
|  sn= 5 | S(rot)=       0.01103867 Eh      6.93 kcal/mol|
|  sn= 6 | S(rot)=       0.01086652 Eh      6.82 kcal/mol|
|  sn= 7 | S(rot)=       0.01072097 Eh      6.73 kcal/mol|
|  sn= 8 | S(rot)=       0.01059490 Eh      6.65 kcal/mol|
|  sn= 9 | S(rot)=       0.01048369 Eh      6.58 kcal/mol|
|  sn=10 | S(rot)=       0.01038421 Eh      6.52 kcal/mol|
|  sn=11 | S(rot)=       0.01029422 Eh      6.46 kcal/mol|
|  sn=12 | S(rot)=       0.01021206 Eh      6.41 kcal/mol|
 --------------------------------------------------------

-------------------
GIBBS FREE ENERGY
-------------------

The Gibbs free energy is G = H - T*S

Total enthalpy                    ...   -351.77924772 Eh
Total entropy correction          ...     -0.03758560 Eh    -23.59 kcal/mol
-----------------------------------------------------------------------
Final Gibbs free energy         ...   -351.81683332 Eh

For completeness - the Gibbs free energy minus the electronic energy
G-E(el)                           ...      0.01665541 Eh     10.45 kcal/mol

                             ****ORCA TERMINATED NORMALLY****
TOTAL RUN TIME: 0 days 0 hours 41 minutes 32 seconds 951 msec
