                         Program Version 5.0.1 -  RELEASE  -
|  1> ! MP2 UHF 6-31G(d) OPTTS NumFreq NoFrozenCore VERYTIGHTSCF VERYTIGHTOPT
|  2>
|  3> * XYZfile 0 2 input.xyz
|  4>
|  5>                          ****END OF INPUT****
 Total Charge           Charge          ....    0
 Multiplicity           Mult            ....    2
 Number of Electrons    NEL             ....   41
MP2 TOTAL ENERGY:     -351.837792875 Eh
FINAL SINGLE POINT ENERGY      -351.837792875275
MP2 TOTAL ENERGY:     -351.837634047 Eh
FINAL SINGLE POINT ENERGY      -351.837634047276
MP2 TOTAL ENERGY:     -351.837243663 Eh
FINAL SINGLE POINT ENERGY      -351.837243662960
MP2 TOTAL ENERGY:     -351.836702689 Eh
FINAL SINGLE POINT ENERGY      -351.836702688674
MP2 TOTAL ENERGY:     -351.835968321 Eh
FINAL SINGLE POINT ENERGY      -351.835968320575
MP2 TOTAL ENERGY:     -351.835448948 Eh
FINAL SINGLE POINT ENERGY      -351.835448948191
FINAL SINGLE POINT ENERGY      -351.836476234813
FINAL SINGLE POINT ENERGY      -351.837462437696
FINAL SINGLE POINT ENERGY      -351.836560938675
FINAL SINGLE POINT ENERGY      -351.836946817773
FINAL SINGLE POINT ENERGY      -351.837713605946
FINAL SINGLE POINT ENERGY      -351.837785778471
FINAL SINGLE POINT ENERGY      -351.837791853163
FINAL SINGLE POINT ENERGY      -351.837792931378
MP2 TOTAL ENERGY:     -351.837793103 Eh
FINAL SINGLE POINT ENERGY      -351.837793103280
MP2 TOTAL ENERGY:     -351.837793235 Eh
FINAL SINGLE POINT ENERGY      -351.837793235317
MP2 TOTAL ENERGY:     -351.837793277 Eh
FINAL SINGLE POINT ENERGY      -351.837793276564
MP2 TOTAL ENERGY:     -351.837793306 Eh
FINAL SINGLE POINT ENERGY      -351.837793306201
MP2 TOTAL ENERGY:     -351.837793320 Eh
FINAL SINGLE POINT ENERGY      -351.837793320245
                    ***********************HURRAY********************

CARTESIAN COORDINATES (ANGSTROEM)
---------------------------------
  C      0.633510   -0.031106    0.230426
  H      0.197591    0.161120    1.212492
  C      0.002993    0.932073   -0.756999
  F      0.955467    0.722624   -2.104092
  O     -1.142806    1.199290   -0.890894
  H      0.394656   -1.042631   -0.107138
  F      1.998584    0.139613    0.280980
  H      0.898610    1.741868   -1.133691

 Multiplicity           Mult            ....    2
 Number of Electrons    NEL             ....   41
 Basis Dimension        Dim             ....   76

ORBITAL ENERGIES
----------------
                 SPIN UP ORBITALS
  NO   OCC          E(Eh)            E(eV)
   0   1.0000     -26.309038      -715.9053
   1   1.0000     -26.303084      -715.7433
   2   1.0000     -20.643912      -561.7494
   3   1.0000     -11.403013      -310.2918
   4   1.0000     -11.355769      -309.0062
   5   1.0000      -1.621071       -44.1116
   6   1.0000      -1.595160       -43.4065
   7   1.0000      -1.490608       -40.5615
   8   1.0000      -1.047496       -28.5038
   9   1.0000      -0.888020       -24.1643
  10   1.0000      -0.769045       -20.9268
  11   1.0000      -0.747188       -20.3320
  12   1.0000      -0.739136       -20.1129
  13   1.0000      -0.709306       -19.3012
  14   1.0000      -0.691299       -18.8112
  15   1.0000      -0.651613       -17.7313
  16   1.0000      -0.640164       -17.4198
  17   1.0000      -0.610488       -16.6122
  18   1.0000      -0.563872       -15.3437
  19   1.0000      -0.542369       -14.7586
  20   1.0000      -0.445970       -12.1355
  21   0.0000       0.188940         5.1413
  22   0.0000       0.224004         6.0955
  23   0.0000       0.243743         6.6326
  24   0.0000       0.300067         8.1652
  25   0.0000       0.313785         8.5385

                 SPIN DOWN ORBITALS
  NO   OCC          E(Eh)            E(eV)
   0   1.0000     -26.309297      -715.9124
   1   1.0000     -26.278575      -715.0764
   2   1.0000     -20.620779      -561.1199
   3   1.0000     -11.407317      -310.4089
   4   1.0000     -11.353627      -308.9479
   5   1.0000      -1.620075       -44.0845
   6   1.0000      -1.526212       -41.5303
   7   1.0000      -1.435810       -39.0704
   8   1.0000      -1.034817       -28.1588
   9   1.0000      -0.829666       -22.5764
  10   1.0000      -0.742322       -20.1996
  11   1.0000      -0.733057       -19.9475
  12   1.0000      -0.721254       -19.6263
  13   1.0000      -0.673595       -18.3294
  14   1.0000      -0.659461       -17.9448
  15   1.0000      -0.625113       -17.0102
  16   1.0000      -0.598504       -16.2861
  17   1.0000      -0.569781       -15.5045
  18   1.0000      -0.513032       -13.9603
  19   1.0000      -0.460020       -12.5178
  20   0.0000       0.028983         0.7887
  21   0.0000       0.220136         5.9902
  22   0.0000       0.238120         6.4796
  23   0.0000       0.254524         6.9260
  24   0.0000       0.312573         8.5055

MULLIKEN ATOMIC CHARGES AND SPIN DENSITIES
------------------------------------------
   0 C :    0.056903    0.027867
   1 H :    0.201260    0.000887
   2 C :    0.312856    0.357444
   3 F :   -0.415401    0.181947
   4 O :   -0.353174    0.153281
   5 H :    0.213843    0.019631
   6 F :   -0.351112   -0.003396
   7 H :    0.334826    0.262339
Sum of atomic charges       :   -0.0000000

LOEWDIN ATOMIC CHARGES AND SPIN DENSITIES
-----------------------------------------
   0 C :   -0.060564    0.047730
   1 H :    0.152963    0.000964
   2 C :    0.108700    0.301308
   3 F :   -0.326803    0.221046
   4 O :   -0.164760    0.172305
   5 H :    0.162565    0.014535
   6 F :   -0.167500   -0.003007
   7 H :    0.295398    0.245118

  Mayer bond orders larger than 0.100000
B(  0-C ,  1-H ) :   0.8843 B(  0-C ,  2-C ) :   0.8382 B(  0-C ,  5-H ) :   0.8776
B(  0-C ,  6-F ) :   0.8271 B(  2-C ,  3-F ) :   0.4274 B(  2-C ,  4-O ) :   1.9820
B(  2-C ,  7-H ) :   0.4804 B(  3-F ,  4-O ) :   0.1359 B(  3-F ,  7-H ) :   0.2569

MP2 TOTAL ENERGY:     -351.837793297 Eh
FINAL SINGLE POINT ENERGY      -351.837793297473

DIPOLE MOMENT
-------------
                                X             Y             Z
Electronic contribution:      1.97935       0.34666      -1.40660
Nuclear contribution   :     -1.92124      -0.54326       2.31488
                        -----------------------------------------
Total Dipole Moment    :      0.05811      -0.19660       0.90828
                        -----------------------------------------
Magnitude (a.u.)       :      0.93113
Magnitude (Debye)      :      2.36673

VIBRATIONAL FREQUENCIES
-----------------------

Scaling factor for frequencies =  1.000000000 (already applied!)

   0:         0.00 cm**-1
   1:         0.00 cm**-1
   2:         0.00 cm**-1
   3:         0.00 cm**-1
   4:         0.00 cm**-1
   5:         0.00 cm**-1
   6:      -630.26 cm**-1 ***imaginary mode***
   7:       123.45 cm**-1
   8:       236.49 cm**-1
   9:       428.82 cm**-1
  10:       460.13 cm**-1
  11:       583.46 cm**-1
  12:       875.90 cm**-1
  13:       968.52 cm**-1
  14:      1056.98 cm**-1
  15:      1136.15 cm**-1
  16:      1211.66 cm**-1
  17:      1293.85 cm**-1
  18:      1433.09 cm**-1
  19:      1547.17 cm**-1
  20:      1804.08 cm**-1
  21:      2270.70 cm**-1
  22:      3145.93 cm**-1
  23:      3224.00 cm**-1

IR SPECTRUM
-----------

 Mode   freq       eps      Int      T**2         TX        TY        TZ
       cm**-1   L/(mol*cm) km/mol    a.u.
----------------------------------------------------------------------------
  7:    123.45   0.002128   10.75  0.005379  ( 0.012688 -0.057310 -0.043973)
  8:    236.49   0.000671    3.39  0.000886  (-0.015106 -0.025450  0.003141)
  9:    428.82   0.009195   46.47  0.006692  ( 0.007245 -0.064041  0.050376)
 10:    460.13   0.001392    7.03  0.000944  ( 0.021726 -0.015067  0.015644)
 11:    583.46   0.001716    8.67  0.000918  (-0.019846 -0.022120 -0.005909)
 12:    875.90   0.013664   69.05  0.004868  ( 0.056835 -0.024089 -0.032524)
 13:    968.52   0.029571  149.44  0.009528  (-0.025834  0.008790  0.093720)
 14:   1056.98   0.004097   20.70  0.001210  (-0.013390 -0.013661  0.029046)
 15:   1136.15   0.029898  151.09  0.008212  (-0.004676 -0.013645 -0.089464)
 16:   1211.66   0.154168  779.10  0.039706  ( 0.132067 -0.022636 -0.147485)
 17:   1293.85   0.021043  106.34  0.005075  (-0.039528  0.017498  0.056627)
 18:   1433.09   0.017812   90.02  0.003879  (-0.053661  0.015371  0.027622)
 19:   1547.17   0.001208    6.10  0.000244  (-0.007623  0.007875 -0.011114)
 20:   1804.08   0.002250   11.37  0.000389  (-0.017216 -0.001731  0.009475)
 21:   2270.70   0.310007  1566.65  0.042604  (-0.196592  0.038179  0.049984)
 22:   3145.93   0.001751    8.85  0.000174  (-0.012702 -0.002929  0.001953)
 23:   3224.00   0.001903    9.62  0.000184  ( 0.004655 -0.004908 -0.011765)

--------------------------
THERMOCHEMISTRY AT 298.15K
--------------------------

Temperature         ... 298.15 K
Pressure            ... 1.00 atm
Total Mass          ... 81.04 AMU

Throughout the following assumptions are being made:
  (1) The electronic state is orbitally nondegenerate
      but the spin degeneracy is treated
  (2) There are no thermally accessible electronically excited states
  (3) Hindered rotations indicated by low frequency modes are not
      treated as such but are treated as vibrations and this may
      cause some error
  (4) All equations used are the standard statistical mechanics
      equations for an ideal gas
  (5) All vibrations are strictly harmonic

freq.     123.45  E(vib)   ...       0.43
freq.     236.49  E(vib)   ...       0.32
freq.     428.82  E(vib)   ...       0.18
freq.     460.13  E(vib)   ...       0.16
freq.     583.46  E(vib)   ...       0.11
freq.     875.90  E(vib)   ...       0.04
freq.     968.52  E(vib)   ...       0.03
freq.    1056.98  E(vib)   ...       0.02
freq.    1136.15  E(vib)   ...       0.01
freq.    1211.66  E(vib)   ...       0.01
freq.    1293.85  E(vib)   ...       0.01
freq.    1433.09  E(vib)   ...       0.00
freq.    1547.17  E(vib)   ...       0.00
freq.    1804.08  E(vib)   ...       0.00
freq.    2270.70  E(vib)   ...       0.00
freq.    3145.93  E(vib)   ...       0.00
freq.    3224.00  E(vib)   ...       0.00

------------
INNER ENERGY
------------

The inner energy is: U= E(el) + E(ZPE) + E(vib) + E(rot) + E(trans)
    E(el)   - is the total energy from the electronic structure calculation
              = E(kin-el) + E(nuc-el) + E(el-el) + E(nuc-nuc)
    E(ZPE)  - the the zero temperature vibrational energy from the frequency calculation
    E(vib)  - the the finite temperature correction to E(ZPE) due to population
              of excited vibrational states
    E(rot)  - is the rotational thermal energy
    E(trans)- is the translational thermal energy

Summary of contributions to the inner energy U:
Electronic energy                ...   -351.83779331 Eh
Zero point energy                ...      0.04966493 Eh      31.17 kcal/mol
Thermal vibrational correction   ...      0.00209492 Eh       1.31 kcal/mol
Thermal rotational correction    ...      0.00141627 Eh       0.89 kcal/mol
Thermal translational correction ...      0.00141627 Eh       0.89 kcal/mol
-----------------------------------------------------------------------
Total thermal energy                   -351.78320092 Eh

Summary of corrections to the electronic energy:
(perhaps to be used in another calculation)
Total thermal correction                  0.00492746 Eh       3.09 kcal/mol
Non-thermal (ZPE) correction              0.04966493 Eh      31.17 kcal/mol
-----------------------------------------------------------------------
Total correction                          0.05459239 Eh      34.26 kcal/mol

--------
ENTHALPY
--------

The enthalpy is H = U + kB*T
                kB is Boltzmann's constant
Total free energy                 ...   -351.78320092 Eh
Thermal Enthalpy correction       ...      0.00094421 Eh       0.59 kcal/mol
-----------------------------------------------------------------------
Total Enthalpy                    ...   -351.78225671 Eh

Note: Only C1 symmetry has been detected, increase convergence thresholds
      if your molecule has a higher symmetry. Symmetry factor of 1.0 is
      used for the rotational entropy correction.

Note: Rotational entropy computed according to Herzberg
Infrared and Raman Spectra, Chapter V,1, Van Nostrand Reinhold, 1945
Point Group:  C1, Symmetry Number:   1
Rotational constants in cm-1:     0.264613     0.133554     0.094621

Vibrational entropy computed according to the QRRHO of S. Grimme
Chem.Eur.J. 2012 18 9955

-------
ENTROPY
-------

The entropy contributions are T*S = T*(S(el)+S(vib)+S(rot)+S(trans))
     S(el)   - electronic entropy
     S(vib)  - vibrational entropy
     S(rot)  - rotational entropy
     S(trans)- translational entropy
The entropies will be listed as multiplied by the temperature to get
units of energy

Electronic entropy                ...      0.00065446 Eh      0.41 kcal/mol
Vibrational entropy               ...      0.00349459 Eh      2.19 kcal/mol
Rotational entropy                ...      0.01220201 Eh      7.66 kcal/mol
Translational entropy             ...      0.01857352 Eh     11.66 kcal/mol
-----------------------------------------------------------------------
Final entropy term                ...      0.03492459 Eh     21.92 kcal/mol

In case the symmetry of your molecule has not been determined correctly
or in case you have a reason to use a different symmetry number we print
out the resulting rotational entropy values for sn=1,12 :
 --------------------------------------------------------
|  sn= 1 | S(rot)=       0.01220201 Eh      7.66 kcal/mol|
|  sn= 2 | S(rot)=       0.01154756 Eh      7.25 kcal/mol|
|  sn= 3 | S(rot)=       0.01116473 Eh      7.01 kcal/mol|
|  sn= 4 | S(rot)=       0.01089310 Eh      6.84 kcal/mol|
|  sn= 5 | S(rot)=       0.01068241 Eh      6.70 kcal/mol|
|  sn= 6 | S(rot)=       0.01051027 Eh      6.60 kcal/mol|
|  sn= 7 | S(rot)=       0.01036472 Eh      6.50 kcal/mol|
|  sn= 8 | S(rot)=       0.01023865 Eh      6.42 kcal/mol|
|  sn= 9 | S(rot)=       0.01012744 Eh      6.36 kcal/mol|
|  sn=10 | S(rot)=       0.01002796 Eh      6.29 kcal/mol|
|  sn=11 | S(rot)=       0.00993797 Eh      6.24 kcal/mol|
|  sn=12 | S(rot)=       0.00985581 Eh      6.18 kcal/mol|
 --------------------------------------------------------

-------------------
GIBBS FREE ENERGY
-------------------

The Gibbs free energy is G = H - T*S

Total enthalpy                    ...   -351.78225671 Eh
Total entropy correction          ...     -0.03492459 Eh    -21.92 kcal/mol
-----------------------------------------------------------------------
Final Gibbs free energy         ...   -351.81718130 Eh

For completeness - the Gibbs free energy minus the electronic energy
G-E(el)                           ...      0.02061201 Eh     12.93 kcal/mol

                             ****ORCA TERMINATED NORMALLY****
TOTAL RUN TIME: 0 days 0 hours 31 minutes 18 seconds 556 msec
