                         Program Version 5.0.1 -  RELEASE  -
|  1> ! MP2 UHF 6-31G(d) OPTTS NumFreq NoFrozenCore VERYTIGHTSCF VERYTIGHTOPT
|  2>
|  3> * XYZfile 0 2 input.xyz
|  4>
|  5>                          ****END OF INPUT****
 Total Charge           Charge          ....    0
 Multiplicity           Mult            ....    2
 Number of Electrons    NEL             ....   33
MP2 TOTAL ENERGY:     -252.831580019 Eh
FINAL SINGLE POINT ENERGY      -252.831580018628
MP2 TOTAL ENERGY:     -252.831528313 Eh
FINAL SINGLE POINT ENERGY      -252.831528313316
MP2 TOTAL ENERGY:     -252.831538723 Eh
FINAL SINGLE POINT ENERGY      -252.831538722766
MP2 TOTAL ENERGY:     -252.831539509 Eh
FINAL SINGLE POINT ENERGY      -252.831539508592
MP2 TOTAL ENERGY:     -252.831541755 Eh
FINAL SINGLE POINT ENERGY      -252.831541754982
MP2 TOTAL ENERGY:     -252.831543505 Eh
FINAL SINGLE POINT ENERGY      -252.831543505283
FINAL SINGLE POINT ENERGY      -252.831542081391
FINAL SINGLE POINT ENERGY      -252.831543342542
FINAL SINGLE POINT ENERGY      -252.831544737481
FINAL SINGLE POINT ENERGY      -252.831546545384
FINAL SINGLE POINT ENERGY      -252.834045445341
FINAL SINGLE POINT ENERGY      -252.834045605806
FINAL SINGLE POINT ENERGY      -252.834045596013
FINAL SINGLE POINT ENERGY      -252.834045638721
MP2 TOTAL ENERGY:     -252.834045639 Eh
FINAL SINGLE POINT ENERGY      -252.834045639064
MP2 TOTAL ENERGY:     -252.834045670 Eh
FINAL SINGLE POINT ENERGY      -252.834045670151
MP2 TOTAL ENERGY:     -252.834045707 Eh
FINAL SINGLE POINT ENERGY      -252.834045707392
MP2 TOTAL ENERGY:     -252.834045720 Eh
FINAL SINGLE POINT ENERGY      -252.834045720057
MP2 TOTAL ENERGY:     -252.834045764 Eh
FINAL SINGLE POINT ENERGY      -252.834045764104
                    ***********************HURRAY********************

CARTESIAN COORDINATES (ANGSTROEM)
---------------------------------
  C      0.839293   -0.088034   -0.172385
  C      0.180633    0.333291    1.116174
  F      1.109445    1.597107    1.620060
  O     -0.963934    0.307868    1.415538
  H      0.560517    0.655371   -0.922507
  H      0.444925   -1.061647   -0.463873
  H      1.922093   -0.115497   -0.075228
  H      0.965929    0.169990    2.081673

 Multiplicity           Mult            ....    2
 Number of Electrons    NEL             ....   33
 Basis Dimension        Dim             ....   64

ORBITAL ENERGIES
----------------
                 SPIN UP ORBITALS
  NO   OCC          E(Eh)            E(eV)
   0   1.0000     -26.253771      -714.4014
   1   1.0000     -20.647993      -561.8605
   2   1.0000     -11.392054      -309.9936
   3   1.0000     -11.260411      -306.4114
   4   1.0000      -1.550350       -42.1872
   5   1.0000      -1.491658       -40.5901
   6   1.0000      -1.045607       -28.4524
   7   1.0000      -0.856176       -23.2977
   8   1.0000      -0.751216       -20.4416
   9   1.0000      -0.709103       -19.2957
  10   1.0000      -0.680876       -18.5276
  11   1.0000      -0.632687       -17.2163
  12   1.0000      -0.604273       -16.4431
  13   1.0000      -0.590981       -16.0814
  14   1.0000      -0.567876       -15.4527
  15   1.0000      -0.526079       -14.3153
  16   1.0000      -0.442920       -12.0525
  17   0.0000       0.203665         5.5420
  18   0.0000       0.236018         6.4224
  19   0.0000       0.250801         6.8246
  20   0.0000       0.308990         8.4080
  21   0.0000       0.319784         8.7018

                 SPIN DOWN ORBITALS
  NO   OCC          E(Eh)            E(eV)
   0   1.0000     -26.237189      -713.9502
   1   1.0000     -20.620027      -561.0995
   2   1.0000     -11.399489      -310.1959
   3   1.0000     -11.257977      -306.3451
   4   1.0000      -1.502426       -40.8831
   5   1.0000      -1.425352       -38.7858
   6   1.0000      -1.033447       -28.1215
   7   1.0000      -0.800530       -21.7835
   8   1.0000      -0.696404       -18.9501
   9   1.0000      -0.671292       -18.2668
  10   1.0000      -0.660418       -17.9709
  11   1.0000      -0.599373       -16.3098
  12   1.0000      -0.581597       -15.8260
  13   1.0000      -0.556874       -15.1533
  14   1.0000      -0.505923       -13.7669
  15   1.0000      -0.446633       -12.1535
  16   0.0000       0.037223         1.0129
  17   0.0000       0.230291         6.2665
  18   0.0000       0.244064         6.6413
  19   0.0000       0.262491         7.1427
  20   0.0000       0.315519         8.5857

MULLIKEN ATOMIC CHARGES AND SPIN DENSITIES
------------------------------------------
   0 C :   -0.547765    0.018923
   1 C :    0.378375    0.209832
   2 F :   -0.391187    0.208828
   3 O :   -0.373439    0.212044
   4 H :    0.230281    0.023559
   5 H :    0.212124   -0.000303
   6 H :    0.204069   -0.003067
   7 H :    0.287542    0.330184
Sum of atomic charges       :    0.0000000

LOEWDIN ATOMIC CHARGES AND SPIN DENSITIES
-----------------------------------------
   0 C :   -0.404208    0.034314
   1 C :    0.127625    0.192852
   2 F :   -0.301812    0.235716
   3 O :   -0.187687    0.219658
   4 H :    0.177653    0.016159
   5 H :    0.164919   -0.000304
   6 H :    0.159867   -0.001984
   7 H :    0.263643    0.303589

  Mayer bond orders larger than 0.100000
B(  0-C ,  1-C ) :   0.8853 B(  0-C ,  4-H ) :   0.8914 B(  0-C ,  5-H ) :   0.8942
B(  0-C ,  6-H ) :   0.9022 B(  1-C ,  2-F ) :   0.4672 B(  1-C ,  3-O ) :   2.0070
B(  1-C ,  7-H ) :   0.5126 B(  2-F ,  3-O ) :   0.1454 B(  2-F ,  7-H ) :   0.2118

MP2 TOTAL ENERGY:     -252.834045762 Eh
FINAL SINGLE POINT ENERGY      -252.834045761807

DIPOLE MOMENT
-------------
                                X             Y             Z
Electronic contribution:     -0.87349       2.75467       3.23242
Nuclear contribution   :      1.62693      -3.51109      -3.84454
                        -----------------------------------------
Total Dipole Moment    :      0.75344      -0.75642      -0.61213
                        -----------------------------------------
Magnitude (a.u.)       :      1.23067
Magnitude (Debye)      :      3.12812

VIBRATIONAL FREQUENCIES
-----------------------

Scaling factor for frequencies =  1.000000000 (already applied!)

   0:         0.00 cm**-1
   1:         0.00 cm**-1
   2:         0.00 cm**-1
   3:         0.00 cm**-1
   4:         0.00 cm**-1
   5:         0.00 cm**-1
   6:      -779.77 cm**-1 ***imaginary mode***
   7:       156.17 cm**-1
   8:       348.56 cm**-1
   9:       486.08 cm**-1
  10:       563.15 cm**-1
  11:       704.13 cm**-1
  12:       972.20 cm**-1
  13:      1010.23 cm**-1
  14:      1078.80 cm**-1
  15:      1147.37 cm**-1
  16:      1443.67 cm**-1
  17:      1528.89 cm**-1
  18:      1539.83 cm**-1
  19:      1593.96 cm**-1
  20:      2035.45 cm**-1
  21:      3138.98 cm**-1
  22:      3238.13 cm**-1
  23:      3266.74 cm**-1

IR SPECTRUM
-----------

 Mode   freq       eps      Int      T**2         TX        TY        TZ
       cm**-1   L/(mol*cm) km/mol    a.u.
----------------------------------------------------------------------------
  7:    156.17   0.000136    0.69  0.000272  (-0.006492  0.008291  0.012688)
  8:    348.56   0.001601    8.09  0.001433  (-0.002558 -0.026614 -0.026804)
  9:    486.08   0.009985   50.46  0.006411  ( 0.044803 -0.013262 -0.065019)
 10:    563.15   0.007550   38.15  0.004184  (-0.007688 -0.003842 -0.064107)
 11:    704.13   0.033915  171.39  0.015031  ( 0.097682  0.069870 -0.024638)
 12:    972.20   0.007675   38.78  0.002463  ( 0.002497  0.047253  0.014980)
 13:   1010.23   0.011724   59.25  0.003622  (-0.042866 -0.039485 -0.015001)
 14:   1078.80   0.008900   44.98  0.002574  (-0.012503  0.003866 -0.049022)
 15:   1147.37   0.018228   92.12  0.004958  ( 0.029989  0.051940  0.036888)
 16:   1443.67   0.002010   10.16  0.000434  ( 0.002410 -0.005331 -0.020006)
 17:   1528.89   0.003551   17.95  0.000725  ( 0.023147  0.010162  0.009263)
 18:   1539.83   0.003210   16.22  0.000651  (-0.001794 -0.025198 -0.003521)
 19:   1593.96   0.022187  112.12  0.004344  (-0.018264 -0.047357 -0.042041)
 20:   2035.45   0.052137  263.48  0.007993  ( 0.088436  0.012908 -0.002415)
 21:   3138.98   0.000043    0.22  0.000004  ( 0.002035 -0.000326  0.000147)
 22:   3238.13   0.000292    1.48  0.000028  ( 0.002780 -0.003152 -0.003236)
 23:   3266.74   0.000426    2.15  0.000041  (-0.006219 -0.001288  0.000569)

--------------------------
THERMOCHEMISTRY AT 298.15K
--------------------------

Temperature         ... 298.15 K
Pressure            ... 1.00 atm
Total Mass          ... 63.05 AMU

Throughout the following assumptions are being made:
  (1) The electronic state is orbitally nondegenerate
      but the spin degeneracy is treated
  (2) There are no thermally accessible electronically excited states
  (3) Hindered rotations indicated by low frequency modes are not
      treated as such but are treated as vibrations and this may
      cause some error
  (4) All equations used are the standard statistical mechanics
      equations for an ideal gas
  (5) All vibrations are strictly harmonic

freq.     156.17  E(vib)   ...       0.40
freq.     348.56  E(vib)   ...       0.23
freq.     486.08  E(vib)   ...       0.15
freq.     563.15  E(vib)   ...       0.11
freq.     704.13  E(vib)   ...       0.07
freq.     972.20  E(vib)   ...       0.03
freq.    1010.23  E(vib)   ...       0.02
freq.    1078.80  E(vib)   ...       0.02
freq.    1147.37  E(vib)   ...       0.01
freq.    1443.67  E(vib)   ...       0.00
freq.    1528.89  E(vib)   ...       0.00
freq.    1539.83  E(vib)   ...       0.00
freq.    1593.96  E(vib)   ...       0.00
freq.    2035.45  E(vib)   ...       0.00
freq.    3138.98  E(vib)   ...       0.00
freq.    3238.13  E(vib)   ...       0.00
freq.    3266.74  E(vib)   ...       0.00

------------
INNER ENERGY
------------

The inner energy is: U= E(el) + E(ZPE) + E(vib) + E(rot) + E(trans)
    E(el)   - is the total energy from the electronic structure calculation
              = E(kin-el) + E(nuc-el) + E(el-el) + E(nuc-nuc)
    E(ZPE)  - the the zero temperature vibrational energy from the frequency calculation
    E(vib)  - the the finite temperature correction to E(ZPE) due to population
              of excited vibrational states
    E(rot)  - is the rotational thermal energy
    E(trans)- is the translational thermal energy

Summary of contributions to the inner energy U:
Electronic energy                ...   -252.83404574 Eh
Zero point energy                ...      0.05525089 Eh      34.67 kcal/mol
Thermal vibrational correction   ...      0.00166544 Eh       1.05 kcal/mol
Thermal rotational correction    ...      0.00141627 Eh       0.89 kcal/mol
Thermal translational correction ...      0.00141627 Eh       0.89 kcal/mol
-----------------------------------------------------------------------
Total thermal energy                   -252.77429687 Eh

Summary of corrections to the electronic energy:
(perhaps to be used in another calculation)
Total thermal correction                  0.00449799 Eh       2.82 kcal/mol
Non-thermal (ZPE) correction              0.05525089 Eh      34.67 kcal/mol
-----------------------------------------------------------------------
Total correction                          0.05974887 Eh      37.49 kcal/mol

--------
ENTHALPY
--------

The enthalpy is H = U + kB*T
                kB is Boltzmann's constant
Total free energy                 ...   -252.77429687 Eh
Thermal Enthalpy correction       ...      0.00094421 Eh       0.59 kcal/mol
-----------------------------------------------------------------------
Total Enthalpy                    ...   -252.77335266 Eh

Note: Only C1 symmetry has been detected, increase convergence thresholds
      if your molecule has a higher symmetry. Symmetry factor of 1.0 is
      used for the rotational entropy correction.

Note: Rotational entropy computed according to Herzberg
Infrared and Raman Spectra, Chapter V,1, Van Nostrand Reinhold, 1945
Point Group:  C1, Symmetry Number:   1
Rotational constants in cm-1:     0.319721     0.277995     0.158418

Vibrational entropy computed according to the QRRHO of S. Grimme
Chem.Eur.J. 2012 18 9955

-------
ENTROPY
-------

The entropy contributions are T*S = T*(S(el)+S(vib)+S(rot)+S(trans))
     S(el)   - electronic entropy
     S(vib)  - vibrational entropy
     S(rot)  - rotational entropy
     S(trans)- translational entropy
The entropies will be listed as multiplied by the temperature to get
units of energy

Electronic entropy                ...      0.00065446 Eh      0.41 kcal/mol
Vibrational entropy               ...      0.00266928 Eh      1.67 kcal/mol
Rotational entropy                ...      0.01152332 Eh      7.23 kcal/mol
Translational entropy             ...      0.01821802 Eh     11.43 kcal/mol
-----------------------------------------------------------------------
Final entropy term                ...      0.03306507 Eh     20.75 kcal/mol

In case the symmetry of your molecule has not been determined correctly
or in case you have a reason to use a different symmetry number we print
out the resulting rotational entropy values for sn=1,12 :
 --------------------------------------------------------
|  sn= 1 | S(rot)=       0.01152332 Eh      7.23 kcal/mol|
|  sn= 2 | S(rot)=       0.01086886 Eh      6.82 kcal/mol|
|  sn= 3 | S(rot)=       0.01048603 Eh      6.58 kcal/mol|
|  sn= 4 | S(rot)=       0.01021441 Eh      6.41 kcal/mol|
|  sn= 5 | S(rot)=       0.01000372 Eh      6.28 kcal/mol|
|  sn= 6 | S(rot)=       0.00983157 Eh      6.17 kcal/mol|
|  sn= 7 | S(rot)=       0.00968603 Eh      6.08 kcal/mol|
|  sn= 8 | S(rot)=       0.00955995 Eh      6.00 kcal/mol|
|  sn= 9 | S(rot)=       0.00944874 Eh      5.93 kcal/mol|
|  sn=10 | S(rot)=       0.00934926 Eh      5.87 kcal/mol|
|  sn=11 | S(rot)=       0.00925927 Eh      5.81 kcal/mol|
|  sn=12 | S(rot)=       0.00917712 Eh      5.76 kcal/mol|
 --------------------------------------------------------

-------------------
GIBBS FREE ENERGY
-------------------

The Gibbs free energy is G = H - T*S

Total enthalpy                    ...   -252.77335266 Eh
Total entropy correction          ...     -0.03306507 Eh    -20.75 kcal/mol
-----------------------------------------------------------------------
Final Gibbs free energy         ...   -252.80641773 Eh

For completeness - the Gibbs free energy minus the electronic energy
G-E(el)                           ...      0.02762801 Eh     17.34 kcal/mol

                             ****ORCA TERMINATED NORMALLY****
TOTAL RUN TIME: 0 days 0 hours 27 minutes 32 seconds 636 msec
